S0 frequencies                                                          
Freq      RPBEPBE                                                     6-31+G(d)           
Number of atoms                            I               17
Full Title                                 C   N=           2
S0 frequencies          
Route                                      C   N=           5
#P PBEPBE/6-31+G* Geom=Checkpoint NoSymm Freq IOp(7/32=5)   
Charge                                     I                0
Multiplicity                               I                1
Number of electrons                        I               76
Number of alpha electrons                  I               38
Number of beta electrons                   I               38
Atomic numbers                             I   N=          17
           6           6           6           6           6           6
           8           6           6           6           8           1
           1           1           1           1           1
Current cartesian coordinates              R   N=          51
  2.32445422E+01 -3.53806033E+01 -4.52778379E-03  2.10009800E+01 -3.67654816E+01
 -4.23109679E-03  2.10881228E+01 -3.94309819E+01 -2.79868439E-03  2.34006902E+01
 -4.07107006E+01 -1.65162063E-03  2.56496892E+01 -3.93041359E+01 -1.94263846E-03
  2.56130342E+01 -3.66235669E+01 -3.39772757E-03  2.78754483E+01 -4.06277265E+01
 -8.03133603E-04  3.02629321E+01 -3.94218696E+01 -9.71319228E-04  3.02241228E+01
 -3.66656152E+01 -2.43396725E-03  2.80135174E+01 -3.53373589E+01 -3.60370772E-03
  3.21306429E+01 -4.07737551E+01  1.66295899E-04  2.32047880E+01 -3.33097054E+01
 -5.64461193E-03  1.91781804E+01 -3.57885971E+01 -5.11170917E-03  1.93280243E+01
 -4.05190143E+01 -2.57380698E-03  2.35054699E+01 -4.27750998E+01 -5.38571946E-04
  3.20723562E+01 -3.57447214E+01 -2.54546109E-03  2.80337715E+01 -3.32646846E+01
 -4.73565367E-03
Real atomic weights                        R   N=          17
  1.20000000E+01  1.20000000E+01  1.20000000E+01  1.20000000E+01  1.20000000E+01
  1.20000000E+01  1.59949146E+01  1.20000000E+01  1.20000000E+01  1.20000000E+01
  1.59949146E+01  1.00782504E+00  1.00782504E+00  1.00782504E+00  1.00782504E+00
  1.00782504E+00  1.00782504E+00
Virial Ratio                               R      2.009727401417266E+00
SCF Energy                                 R     -4.964582457249057E+02
Total Energy                               R     -4.964582457249057E+02
RMS Force                                  R      2.984689080293748E-05
RMS Density                                R      2.320751540134750E-09
Job Status                                 I                1
Nuclear derivative order                   I                2
Mulliken Charges                           R   N=          17
  1.40511222E-01 -1.17800548E-01 -2.28577416E-01 -1.11299829E+00 -1.62812473E+00
  2.40467578E+00 -3.01516682E-01  7.19360423E-01 -2.42681489E-01 -4.64318753E-01
 -4.28383863E-01  2.02716012E-01  1.99185648E-01  2.01922448E-01  2.19129640E-01
  2.24586445E-01  2.12314152E-01
Cartesian Gradient                         R   N=          51
  7.65301730E-06  1.10929974E-05  1.84828067E-07  2.15998375E-05 -4.42020226E-05
  2.73440077E-07 -8.26232391E-06  1.40498964E-05 -4.04444855E-07  3.14521046E-05
 -9.84102705E-06 -1.20192899E-07 -2.94882816E-05 -9.78190686E-05  1.84675111E-06
 -4.86549169E-06  1.11637776E-04 -8.72009874E-07  3.16561129E-05  1.01140111E-04
  1.89888125E-07 -1.11197302E-05 -4.43505574E-05 -4.35706289E-06 -4.48522307E-05
 -5.72035924E-06  1.59161337E-06  3.66921753E-05 -1.38655895E-05  7.25126329E-07
 -2.09845546E-05 -1.82004222E-05  1.67781686E-06  1.58771352E-07 -1.01846845E-05
 -3.49930186E-08  8.26546935E-06  5.02899871E-06  3.09439143E-08  6.37608863E-06
 -6.77898675E-06  3.24837563E-08 -9.12629384E-06  8.59375092E-06 -1.43123432E-07
 -6.46512155E-06  1.17278481E-05  1.57468170E-07 -8.68954897E-06 -1.23086605E-05
 -7.78532812E-07
Cartesian Force Constants                  R   N=        1326
  6.48550066E-01  2.26509237E-02  7.00217490E-01  9.18096929E-05 -3.05073872E-04
  1.21358589E-01 -2.86052787E-01 -1.28868999E-01  2.32723048E-05  7.07436427E-01
 -7.79531313E-02 -1.78398847E-01  5.10789518E-05 -2.11496256E-02  6.45744719E-01
 -3.97694273E-06  4.08701368E-05 -5.43080918E-02  1.27702648E-04 -2.86087438E-04
  1.16622363E-01  2.71049760E-02 -2.42570845E-02  1.70941811E-05 -1.16259993E-01
 -2.04182089E-02 -1.24928310E-06  6.96059919E-01 -6.23714616E-02 -3.24252172E-02
  7.93783215E-06  3.48601001E-02 -3.13664406E-01  1.43974695E-04  2.17762629E-02
  6.50158978E-01  3.75082801E-05  1.55923719E-05  5.67755724E-03 -3.05954678E-05
  1.32800552E-04 -5.58971446E-02  1.03596712E-04 -2.75560156E-04  1.23669275E-01
 -4.92500560E-02 -4.84639570E-03 -6.84177065E-06  2.26130887E-02  6.35504408E-02
 -3.04560857E-05 -2.91346862E-01  6.98012036E-02 -8.56053560E-05  6.58444365E-01
 -1.67047338E-03 -1.02662294E-03 -5.03599890E-07  2.93081425E-02 -2.24929335E-02
  2.08638453E-05  1.23663120E-01 -1.71851544E-01  8.86880116E-05 -2.21330484E-02
  7.17464294E-01 -8.77154856E-06 -1.11574698E-06 -1.37781983E-03 -1.21131918E-05
  2.77137895E-05  5.61817990E-03 -1.14189244E-04  7.77071012E-05 -5.18764379E-02
  1.22023231E-04 -3.25124548E-04  1.12538254E-01  2.78940750E-02  2.98336975E-02
 -9.99343423E-06 -1.32300983E-02 -2.91527786E-02  1.32355529E-05 -5.74056691E-02
  2.35557573E-02 -2.39587800E-05 -2.32226604E-01 -1.28995959E-01  3.24066619E-05
  6.42542605E-01  5.74925640E-02 -1.92282619E-02  2.02246776E-05 -2.18334181E-02
 -3.61437652E-02  1.37614605E-05 -1.56191592E-02  5.11790468E-02 -3.06081596E-05
 -7.99834386E-02 -1.88895850E-01  5.48428240E-05  5.01055718E-02  6.46836223E-01
 -2.46759578E-05  1.45668485E-05 -2.78188629E-03  9.40866965E-06  1.23908724E-05
 -2.23189701E-03 -2.86165100E-06 -2.29394864E-05 -5.88942650E-04  6.58414128E-06
  4.52327956E-05 -5.46464913E-02  7.50569468E-05 -2.65306209E-04  1.32606829E-01
 -2.50753162E-01  1.04793690E-01 -9.49676039E-05 -5.36730320E-02 -2.29268741E-02
  8.04218003E-07 -1.21977296E-02  2.50017710E-02 -1.52450823E-05  2.39475495E-02
 -2.34446653E-02  1.67859639E-05 -1.15167583E-01 -1.82754545E-02 -2.91158794E-06
  6.82610725E-01  6.89809875E-02 -1.60348843E-01  7.17533116E-05  9.11005374E-03
  4.11829113E-02 -1.77341536E-05  1.68453466E-02 -3.16616881E-02  1.89452906E-05
 -4.85524638E-02 -2.01304855E-02  2.79689953E-06  8.02434120E-03 -2.73923683E-01
  1.21504822E-04 -1.24332042E-02  6.30176390E-01 -7.59831457E-05  7.88712646E-05
 -5.14316020E-02 -1.64398643E-05 -2.42143967E-05  4.50772690E-03 -1.09602430E-05
  2.07598743E-05 -2.29835638E-03  3.00210896E-05  7.45351539E-06  2.90089269E-03
 -1.69442909E-05  1.16455069E-04 -5.25947458E-02  1.18799330E-04 -2.77161713E-04
  1.19658564E-01 -8.78990012E-03  1.61413741E-04 -3.22647207E-06  1.84052899E-03
  1.38791734E-02 -6.64483149E-06  8.93152119E-03 -1.66668020E-02  9.56301830E-06
 -7.24328584E-02  2.11471862E-02 -2.61469948E-05 -1.88777342E-01  7.26422353E-02
 -6.80650439E-05  3.38136429E-03  3.30009191E-02 -1.83279518E-05  4.55453077E-01
 -3.62348205E-03 -5.59721710E-03  5.83701728E-06 -1.05850544E-04 -6.53621100E-04
 -6.38410837E-07 -4.41155625E-03 -1.90835285E-03  3.10317264E-06 -7.95586847E-03
  2.04957592E-02 -1.07843297E-05  6.75079755E-02 -1.56478157E-01  7.61312177E-05
  3.53265211E-02 -2.64749797E-02  2.49429634E-05 -4.93239453E-02  2.98339295E-01
 -1.02502970E-06  6.65698919E-06  6.67870196E-03  7.75014495E-07  2.07859422E-06
 -1.78016936E-03  2.95649825E-06  6.89553126E-07  5.56047976E-03 -1.07502017E-05
 -4.99856585E-06  3.24526040E-03 -6.49913252E-05  7.69858646E-05 -3.88918693E-02
 -1.97998696E-05  2.46904104E-05  7.26665764E-03  1.09271576E-04 -1.46958478E-04
  4.12720762E-02  4.68602876E-03 -1.89926878E-03  2.09300797E-06 -6.82590297E-04
 -7.74015915E-03  3.92031009E-06 -5.51620324E-03  5.57140688E-03 -4.40279069E-06
  1.62400116E-02  7.80290227E-04  2.20145251E-06 -7.24310010E-02  2.29203681E-02
 -2.42895556E-05 -3.01192632E-03 -1.22861129E-02  7.15233904E-06 -6.80294805E-02
 -2.82036632E-02  8.91063016E-06  6.56304942E-01  8.17179978E-03 -3.56333035E-03
  3.41605034E-06 -2.64671334E-03 -8.82996006E-03  4.25306392E-06 -5.80636020E-03
  7.02958020E-03 -4.01909101E-06  1.35804515E-02 -1.65528442E-03  4.94058679E-06
 -1.65251933E-02  3.63181962E-02 -2.79410048E-05 -1.10635773E-02 -1.47463174E-02
  2.41826573E-06 -2.89585730E-02 -1.43377032E-01  4.99750098E-05 -2.73608089E-01
  6.86586226E-01 -3.38797776E-06  1.40728702E-06 -2.72069010E-04  1.28450871E-06
  3.27195983E-06  1.57912876E-04  1.65201096E-06 -1.80093091E-06  1.70375400E-03
 -4.61145938E-06  2.34639964E-06  2.58994835E-03 -3.66888887E-06 -1.97742202E-05
 -9.47507215E-03  6.78591339E-06  2.09682117E-06 -6.26207196E-03  9.52442285E-06
  5.00181611E-05 -3.91430085E-02  2.50976481E-04 -3.34155584E-04  1.72410111E-01
  5.98119572E-03 -5.85297491E-03  3.62105410E-06 -2.69997719E-03 -2.97177055E-03
  1.10264749E-06 -5.08362609E-04  1.49154019E-03 -8.67587066E-07 -1.58717445E-03
  8.43392558E-04 -9.41996101E-07 -1.31868987E-03  7.56912633E-03 -4.54093717E-06
 -5.00610138E-02  3.57646510E-03 -1.31738907E-05 -3.27415455E-03 -3.45570921E-02
  1.58820626E-05 -9.48230941E-02 -2.62700389E-02  9.17618490E-06  7.87518265E-01
 -1.23318549E-02 -5.24130386E-04 -2.72349092E-07  2.47167443E-03  7.23922026E-03
 -3.49901983E-06  2.68579247E-03 -4.45554101E-03  2.84891624E-06 -4.39202388E-03
 -2.91399354E-04 -3.98736178E-07  1.45267234E-02 -1.88412522E-02  1.36100064E-05
  7.72476520E-03  2.87301979E-02 -1.13670986E-05 -4.02203000E-02 -1.48877629E-02
  4.63033822E-06 -3.97986947E-03 -2.18060752E-01  7.71958359E-05 -3.90018964E-02
  5.90467142E-01  7.06757287E-06  9.41090053E-07  3.48304431E-03 -1.79530031E-06
 -4.54613709E-06 -2.10080356E-04 -1.48206070E-06  2.56959691E-06 -1.44499318E-04
  1.84590509E-06  7.27823638E-07  7.49080223E-04 -8.17761640E-06  1.20834046E-05
  8.84477519E-04 -1.53308456E-05 -1.20676524E-05  4.60178110E-03  1.92596150E-05
  5.86810888E-06  8.98795780E-03 -2.86844148E-06  7.26989868E-05 -6.93057930E-02
  1.62608507E-04 -2.68953914E-04  1.01762470E-01 -4.94525591E-02 -9.79149916E-03
 -4.76502804E-06  4.35535609E-03  1.30516053E-02 -7.49555995E-06  8.06663659E-04
 -4.72271365E-03  2.96875644E-06  1.09600652E-03  2.03964460E-03 -2.02165004E-06
  1.30188137E-02 -3.90505909E-02  2.35172470E-05 -2.17636141E-01 -6.58441836E-02
  2.48474129E-06 -3.20461805E-02  4.93427588E-03 -8.51798249E-06  1.84404712E-02
  4.54326074E-02 -2.09980031E-05 -3.57581237E-01  1.29288930E-01 -1.33797320E-04
  6.82536303E-01  1.00756784E-02  1.40737424E-02 -5.52007994E-06  5.10569610E-03
 -2.33029214E-04  4.83529813E-06  1.83697645E-03 -1.80240285E-03  5.29794720E-07
  4.80425754E-04 -6.51905421E-03  6.60742075E-06 -2.92238691E-02 -2.28463611E-02
  6.77487852E-06 -8.71529488E-02 -1.50773905E-01  3.48101541E-05 -6.42388997E-03
  3.89359271E-03 -4.28684636E-06  3.69356080E-02 -1.67225041E-02  1.65605954E-05
  1.59474094E-01 -2.05492381E-01  1.17670968E-04 -7.25271147E-02  7.02351896E-01
 -1.52516085E-05 -9.28640349E-06  2.01873101E-04 -3.19787854E-06  6.36957203E-06
  6.87521841E-03 -5.78240762E-07 -7.60100287E-07 -1.43943310E-03 -1.18814286E-06
  6.90658048E-06  5.42580449E-03  1.83792956E-05  4.95096130E-06  1.05805709E-03
  1.36018537E-05  3.88986796E-05 -5.38131390E-02 -2.74741672E-06 -2.08396975E-06
 -1.88987979E-03 -1.58868628E-05  1.80245461E-05 -4.01891571E-04 -1.49881149E-04
  1.11965210E-04 -4.70227391E-02  1.52529863E-04 -3.27287328E-04  1.27497379E-01
  1.55371638E-03 -1.71827964E-04  4.23296300E-07 -1.58195529E-03 -1.16911733E-04
 -2.66513155E-07 -4.78692644E-04 -7.52135697E-05  3.74093267E-08 -3.58098941E-03
  3.56194134E-03 -2.49538595E-06  3.97353527E-03 -1.19682736E-02  5.47721368E-06
 -4.46353232E-03 -1.53145605E-04 -7.50067153E-07 -9.87030390E-02  1.73981632E-02
 -3.18660401E-05 -4.48341237E-01  2.94488833E-01 -2.41909911E-04 -9.48852486E-03
  3.13373742E-02 -2.35056614E-05  7.26147996E-03 -2.67364491E-03  2.16731226E-06
  5.53687387E-01 -2.46383525E-03  1.37290098E-03 -1.37631868E-06  1.44728111E-03
  2.48319107E-03 -9.41619504E-07  1.97800074E-03 -2.15749233E-03  1.29473555E-06
 -2.41191799E-03 -8.57822034E-04 -5.19413426E-08  3.27981406E-03 -3.25334432E-03
  5.78436655E-06  3.51807116E-03  3.96424070E-03 -1.47086511E-06  5.84097067E-04
  3.15781155E-02 -1.13071858E-05  2.89141986E-01 -3.15814365E-01  1.97836109E-04
  5.05350428E-02 -4.19592171E-02  4.48105450E-05 -1.35423737E-02 -6.46610822E-03
  2.54745229E-06 -3.34272723E-01  3.30578224E-01  1.71548814E-06 -9.34864425E-07
 -2.97652283E-04 -1.15720851E-06 -1.28099507E-06  1.81569052E-04 -1.07827980E-06
  9.09017404E-07 -4.87190938E-04  5.78276271E-07  1.25703537E-06  3.48439775E-06
 -2.18651972E-06  2.49670499E-06  6.09300164E-03 -2.89478620E-06 -2.24515804E-06
 -2.87669403E-05 -2.30695195E-05 -7.86098560E-06  1.01975108E-02 -2.39367854E-04
  1.99531362E-04 -6.41821880E-02 -3.36701956E-05  4.04596816E-05  2.11811123E-02
  8.25351639E-06  4.65910378E-06  3.37993027E-03  2.93234322E-04 -2.35137565E-04
  2.78351054E-02 -5.49362074E-02  6.06938041E-03 -7.60555252E-06  4.97340902E-03
 -2.66287280E-02  1.46055714E-05 -4.49116522E-03 -2.09423271E-03 -1.09200479E-06
 -8.58951804E-04  2.30421741E-04 -1.51209530E-07 -4.46604600E-03  5.13547541E-04
 -2.21847865E-06  1.60682245E-03  2.70130321E-02 -1.46585699E-05 -7.38566182E-04
  1.80712773E-03 -1.22328710E-06  1.08074640E-03  6.62312130E-04 -1.30806620E-07
  3.19808834E-05 -5.66600000E-04  3.29842246E-07  1.94126861E-03  1.59652665E-03
  2.11652528E-07 -2.58901832E-04 -2.10908032E-04  7.22319228E-08  5.52753861E-02
  5.67656627E-03 -3.22243256E-01  1.56155132E-04  3.03261979E-03 -1.14745999E-02
  8.43433482E-06 -3.33528379E-03  3.64400190E-04  2.73885882E-06  4.58663062E-05
  5.23445544E-04 -6.45189318E-07  2.16619622E-03  1.49623610E-03  2.55503233E-06
 -7.68180464E-04 -1.16831975E-02  7.52219399E-06  4.10977813E-04 -7.82793276E-04
  7.84586996E-07 -8.98834214E-04 -1.01988287E-05 -1.82890062E-07  4.60801809E-04
  5.18711624E-05  2.50050495E-08 -1.89741509E-03  9.15825886E-04 -2.81623860E-06
  3.45391641E-04 -7.16336724E-05  7.38964750E-08 -6.33636918E-03  3.42631833E-01
 -7.31192519E-06  1.56282468E-04 -3.25527171E-02 -1.35001729E-06  2.50798359E-06
  3.16051223E-03 -4.25985382E-07  3.01648414E-06  6.70985697E-03  1.50490390E-08
 -6.27212502E-07 -7.17660865E-04 -3.17806010E-06  2.19597461E-06  5.51321279E-03
  8.20327068E-08  1.29819158E-05  2.58176852E-03 -4.61284170E-07  1.07183294E-06
  5.23097623E-04  6.96240194E-07  1.29601026E-07  1.70355066E-08 -2.33945052E-07
 -1.71008713E-07 -9.06851600E-05  2.17116501E-06 -2.10170588E-06 -3.62486160E-03
 -2.22752989E-07 -3.99195766E-08 -7.40666995E-05  9.80371701E-06 -1.72489824E-04
  2.26491189E-02 -1.82550846E-02  1.39929151E-02 -1.14085898E-05 -2.66467092E-01
  1.13592899E-01 -1.06744588E-04  2.73894217E-03 -1.90912359E-03  1.24304290E-06
  1.50365800E-03 -3.51567587E-04 -6.45576724E-07  9.45176865E-05 -8.35424309E-04
  5.13293171E-07 -2.12455101E-03 -3.94947528E-03  3.29363227E-07  9.92386264E-05
  1.72141373E-04  8.62024792E-08  1.12840264E-04 -3.91519712E-04  2.45226232E-07
 -4.55268322E-04 -1.89877805E-04  5.95561971E-08 -4.30742711E-04  1.17271696E-03
 -8.31283608E-07 -1.26414577E-04  1.83731217E-04 -1.32535565E-07  9.10790517E-04
 -1.44461294E-04  1.03097801E-06  2.81732362E-01 -1.57704958E-02  1.07386242E-02
 -7.92652831E-06  1.13741463E-01 -1.15327279E-01  6.71160828E-05  2.77982025E-02
 -9.88995609E-03  1.16389246E-05 -1.30629883E-03 -5.24874320E-03  5.55968010E-06
 -1.13162710E-03 -1.00478589E-03  2.02089720E-07 -2.83718053E-03 -1.38318980E-03
  3.82505687E-06  4.32718892E-04  2.56611220E-04 -4.82372773E-07 -2.64541735E-04
 -1.84711840E-04  1.52913677E-08 -1.71583626E-04 -1.07423295E-04 -1.18245645E-07
 -5.55394448E-04  6.82674855E-04 -1.19799186E-07  9.08979223E-05  3.06118867E-05
  1.99815278E-08  3.61389347E-04  8.28701223E-04 -2.44866680E-06 -1.21472118E-01
  1.20044944E-01  4.49205312E-06 -2.04809459E-06  1.71418327E-03 -1.06872567E-04
  6.70832777E-05 -3.15532114E-02 -1.45653315E-05  5.78085659E-06  1.56761727E-03
 -1.14370048E-07  5.75462132E-06  5.73054974E-03  6.26602898E-07  2.54338022E-07
 -2.05091743E-04 -2.80280892E-07  3.63198743E-06  6.86330496E-03 -3.13700920E-08
 -5.38105521E-07 -8.10822476E-04  1.64280247E-07 -2.40558922E-08 -5.46746992E-05
  5.54572557E-08 -1.15777319E-07 -2.65169617E-04  9.38271708E-08  2.24354417E-07
  6.55916429E-04 -8.15872681E-08  4.35367243E-08  3.22638301E-05  7.53156289E-07
 -2.56475027E-06 -3.90519636E-03  1.15625902E-04 -7.56916400E-05  2.30899644E-02
  1.47480600E-03  5.74030788E-04 -1.18538394E-06  4.23400645E-03  2.55069283E-03
 -1.14056026E-06 -2.51250456E-01 -1.21298429E-01  2.08985871E-05 -1.85515318E-02
 -1.52554650E-02  3.67772255E-06 -1.64175494E-03  3.60150419E-03 -3.65714300E-06
 -4.33324074E-05  6.74345993E-04 -2.09136697E-07 -1.85787059E-03 -1.07357824E-03
  1.23247531E-07  7.47867454E-04  4.64337276E-04 -4.06155659E-08 -3.51119734E-05
 -2.73527835E-05  2.63199347E-08  6.80865254E-05 -4.77283315E-05  2.00908516E-07
 -5.57755199E-04  9.09373295E-05 -1.56840790E-07  1.04285213E-04  2.03159490E-04
 -1.08483976E-07  7.26510778E-04 -2.57391030E-04  9.37690615E-07  2.65580480E-01
  1.54284914E-03 -5.57151472E-03  6.35641932E-06 -2.68306832E-02 -1.07228124E-02
  2.01513848E-06 -1.21577493E-01 -1.30091130E-01  2.63267801E-05  1.40498483E-02
  1.05844477E-02 -9.82960988E-07  2.64131909E-03 -1.02083433E-03  4.88812227E-06
  9.67821242E-04 -4.48127448E-04 -2.29002355E-08  8.21374129E-04  6.69205099E-04
  9.74712423E-09  1.50025899E-05 -1.97649538E-04 -4.14680756E-08 -5.77651693E-06
 -3.03075504E-06 -4.70995260E-08 -8.78633776E-05  8.20220672E-05 -4.80126466E-07
  1.68103920E-04  2.28411577E-05 -4.93804151E-09 -1.43804320E-03 -7.11093767E-04
  1.56207044E-07  2.52490019E-04  9.74388537E-04 -2.18538474E-06  1.29780568E-01
  1.35575557E-01 -1.71313528E-06  6.13186437E-06  5.81404578E-03  1.44601247E-05
  7.98024359E-06  3.17672963E-03  2.11586449E-05  2.63289951E-05 -3.44603525E-02
 -1.20287970E-05 -6.89827004E-06  3.38217644E-03 -3.12217321E-06  5.18142963E-06
  7.21020234E-03 -3.03849958E-07 -1.28337567E-07 -8.57713307E-04 -9.32372991E-07
 -3.70054734E-07  3.81887621E-04  2.15828576E-07  8.91096127E-08 -2.84348935E-04
  2.79528581E-08 -6.19485693E-08 -8.69365710E-05  2.06508570E-07 -4.87550007E-07
 -7.91554752E-04 -1.95939209E-07 -3.37518760E-08 -5.45018637E-05  7.54355548E-07
  4.64011319E-07  9.47986499E-05  6.53307470E-07 -2.28041560E-06 -3.23600521E-03
 -2.03018381E-05 -3.34914370E-05  2.34414752E-02 -1.15886642E-03 -5.13823059E-05
 -7.57443553E-08 -4.50124795E-03  1.57694382E-03 -3.09942543E-06  3.45326711E-03
  2.71027576E-02 -1.40768473E-05 -5.46477515E-02  1.19087117E-02 -1.09407310E-05
  4.35113815E-03 -2.66248900E-02  1.40957809E-05 -4.43555929E-03 -1.41029931E-03
 -1.15894485E-06  2.88380576E-03  6.08968989E-04  9.17584633E-07 -7.48772465E-04
 -3.83187704E-04  1.93110864E-07  1.71974861E-04  2.02330788E-04 -8.04615119E-08
  5.79325734E-04 -1.38441271E-03  8.35462126E-07  2.32346858E-04  1.32133638E-04
 -5.20138752E-08  1.65630043E-04  5.96503198E-06  2.03682708E-07  5.06847850E-05
  1.40096674E-03 -8.21771992E-07  1.01979483E-03 -3.47606270E-04  1.19853005E-06
  5.29829251E-02 -2.28389613E-04  6.45406532E-04 -6.99886528E-07  2.40733927E-03
  1.16689385E-03  3.37936820E-06 -1.37492819E-03 -8.73846545E-03  5.46778251E-06
  1.01603345E-02 -3.29505494E-01  1.59434516E-04  3.21800820E-03 -1.33200779E-02
  1.01682077E-05 -2.94112377E-03  3.30702949E-04  1.79460613E-06  1.52293378E-03
  1.06486621E-03 -2.02839267E-06 -6.17204666E-04 -3.61090353E-04 -2.91629516E-07
  1.56043763E-05  3.70882209E-04 -1.84138657E-07  7.86085733E-04 -6.89205298E-04
  6.67350229E-07  2.77618706E-05  1.07413950E-04  2.84141343E-08 -1.08636025E-05
 -9.92262479E-05 -4.06075733E-07 -1.79617311E-04 -4.74152233E-04  4.31759692E-07
  9.66496849E-05  8.05614836E-04 -2.50443034E-06 -1.26358006E-02  3.48737669E-01
 -5.89609832E-09 -6.79875948E-07 -6.12232600E-04 -3.54100803E-06  3.26685068E-06
  6.69278013E-03  1.00466102E-06  1.12216179E-05  2.05888263E-03 -9.94506995E-06
  1.59764847E-04 -3.20188129E-02 -1.69907421E-06  4.06266488E-06  4.49465813E-03
 -3.20239682E-07  2.17631844E-06  4.93892125E-03  3.94847197E-07 -2.19940415E-06
 -3.31314001E-03  3.29750970E-07 -2.49792453E-07 -6.88061780E-04  2.14264946E-08
 -1.37983411E-07  2.67815749E-05 -3.44110400E-07  2.07015376E-07  2.34523109E-04
 -1.25009813E-08  5.49754563E-08  1.54835546E-04  2.11338951E-07 -4.11162699E-07
 -8.64221315E-04  2.40034034E-08  7.56556211E-07  4.09240607E-04  9.46607511E-07
 -2.60314570E-06 -3.96835848E-03  1.28679752E-05 -1.75180176E-04  2.25490546E-02
 -5.57718510E-04 -1.10168838E-03  3.40512149E-07 -3.14899567E-04  4.05656584E-04
 -8.99424314E-08  9.72025194E-05  2.24741284E-05 -3.60719805E-08  1.62309003E-05
 -1.05508153E-04  2.95692363E-07  1.66629226E-04  2.72210245E-04 -7.76694633E-08
 -8.90382904E-04  4.02120391E-03 -4.33499576E-06  1.28702045E-03  7.81766017E-04
 -8.79239968E-07  1.14237066E-03  2.93685936E-03 -1.50885207E-06 -2.76196838E-01
 -1.15222352E-01  1.12065096E-05 -1.78467436E-02 -1.25607696E-02  2.50706225E-06
  9.33252105E-04  2.02261037E-05  4.21327892E-07 -8.79463350E-06  3.43635325E-05
 -8.44561032E-08 -1.07425985E-04 -7.29067797E-05  3.75386447E-08 -1.33415696E-05
 -1.31067783E-05 -2.76511565E-08 -1.36854025E-05 -2.33886503E-05  5.23601704E-09
  2.91399571E-01  2.68792224E-04  8.15266568E-04 -1.00206579E-07  2.74907677E-04
  1.46942490E-04 -4.75519756E-07  1.97152536E-04 -2.80826159E-04  2.83971470E-07
 -6.26434470E-04  1.48612616E-04 -7.56820654E-07  3.20513384E-03 -1.58083134E-03
  1.26697664E-06  2.98585066E-03 -1.35637392E-03  6.51197688E-06 -3.06772703E-03
 -6.49913826E-03  4.70167603E-06 -2.79451904E-02 -8.67871188E-03 -4.86470226E-07
 -1.13343833E-01 -1.10355436E-01  1.87043972E-05  1.61656994E-02  1.11728772E-02
 -1.14974328E-06  1.49861656E-03  1.86405586E-03 -1.31129449E-06 -1.92221031E-05
  3.49948157E-06  1.54718911E-07  8.56056789E-05  5.69897961E-05 -6.21256253E-08
 -3.03557771E-05  1.81795046E-05  6.16580046E-08  1.00384740E-04  6.22633931E-05
 -1.94249690E-09  1.20512465E-01  1.13477568E-01 -3.77821471E-07 -3.94355903E-07
  5.58568850E-04 -5.53969080E-08 -4.32575787E-07 -8.52085871E-04 -1.02498515E-07
  2.48337581E-07  1.81831116E-04  5.31458096E-07 -6.69026090E-07 -1.05828997E-03
 -1.55326833E-06  7.17368815E-07 -3.56359918E-04 -3.79471163E-06  6.84854507E-06
  9.74389811E-03  1.19553484E-06  5.45395812E-06  3.46204413E-03  1.48922490E-05
  5.59253707E-06  9.90514951E-04  1.02440799E-05  1.86237149E-05 -3.15354956E-02
 -1.28141710E-05 -7.07026095E-06  2.86803441E-03 -4.01281455E-07 -1.61769237E-06
 -1.14490302E-03 -5.25885265E-08  1.65705985E-07  3.00945668E-04 -5.12551344E-08
 -9.80903136E-08 -9.54124791E-05 -1.74126235E-08  6.70399454E-08  1.49756286E-04
 -6.04637549E-08 -2.67333867E-08  2.09433028E-05 -9.05245228E-06 -2.38461594E-05
  2.22694068E-02  1.96147802E-03 -1.23493064E-03  1.41553111E-06  1.08567891E-05
  4.50775830E-04 -2.07216297E-07  2.62642149E-04 -4.52980851E-05  6.41819358E-08
  6.21869217E-04 -1.52616423E-03  1.02680329E-06 -5.37652559E-03 -9.26478128E-04
 -1.35526616E-06  2.91148555E-03 -2.66178105E-02  1.41542349E-05  7.72835224E-04
  7.18096408E-04  1.30160079E-07 -5.17097334E-03 -8.39482282E-05 -3.58134473E-06
  4.32603059E-03  2.76945369E-02 -1.53661201E-05 -5.51101717E-02 -4.68334452E-03
 -8.70827189E-07 -6.06760753E-05  1.99043663E-03 -5.09408988E-07 -3.31686183E-04
  9.98636131E-04 -6.25954400E-07 -2.96544079E-06  1.38991885E-05 -1.92293571E-08
 -4.68361088E-06  6.11951775E-05 -4.94954584E-08 -3.85010132E-04 -2.23401022E-04
  6.20524461E-08  9.07553483E-04 -2.61846031E-04  1.46999987E-06  5.46679410E-02
  1.55296294E-03  1.06380982E-03 -1.28655082E-06 -3.23988272E-04 -2.26234830E-05
 -1.27262595E-07  1.92195656E-05  1.95017679E-04 -7.17554524E-08  5.39319417E-04
 -7.41325254E-04  2.57455079E-07 -3.03511130E-03  7.07501751E-04  1.11046430E-06
  1.52471830E-03 -1.14536533E-02  8.87203296E-06  5.82079827E-05  3.61609060E-04
 -1.14092923E-06  2.07827146E-03  2.26790536E-03  5.98473308E-06 -1.79110180E-03
 -1.18809882E-02  9.81726128E-06 -3.67969936E-03 -3.21627681E-01  1.53653357E-04
  5.14656513E-04 -1.42161286E-03 -6.59396592E-07 -9.48770782E-04  2.60186775E-04
 -2.12773121E-07 -2.93146925E-05  6.69574782E-06  2.52023116E-08 -4.59261340E-05
  3.39372195E-05  1.88845759E-08 -2.01584195E-04 -1.04001808E-04 -4.73627589E-08
  9.24952449E-05  9.85062155E-04 -3.56231260E-06  3.67564511E-03  3.41370160E-01
 -1.12098988E-07 -1.78710800E-06 -1.85249298E-03  2.14630793E-07  1.88965557E-08
 -1.60311481E-04  3.01099553E-08 -8.32876897E-08  6.31031290E-05 -5.78971990E-08
 -1.74254051E-07 -4.88117771E-04 -2.31628394E-07  1.47584474E-06  3.91191732E-03
 -1.01045518E-06  3.01201554E-06  4.22288025E-03  4.44242351E-07 -9.92693479E-07
 -1.74678447E-03 -4.73706572E-06  5.32040971E-06  1.22169209E-02  5.70328948E-07
  1.56441304E-05  6.98469432E-03 -1.47180251E-06  1.53874188E-04 -3.92132370E-02
  3.68088262E-07 -3.94860498E-07 -2.78954351E-03  3.90631817E-07  1.91296625E-07
  2.96080767E-04  2.95360942E-09  3.20954089E-08  6.25434885E-05  6.33130784E-09
  4.00069160E-08  8.86996698E-05  5.42774962E-08 -5.05414121E-08 -1.15793705E-04
  1.27745426E-06 -3.49509158E-06 -5.50339679E-03  4.26189909E-06 -1.72631048E-04
  2.40228379E-02
Nonadiabatic coupling                      R   N=          51
  0.00000000E+00  0.00000000E+00  0.00000000E+00  0.00000000E+00  0.00000000E+00
  0.00000000E+00  0.00000000E+00  0.00000000E+00  0.00000000E+00  0.00000000E+00
  0.00000000E+00  0.00000000E+00  0.00000000E+00  0.00000000E+00  0.00000000E+00
  0.00000000E+00  0.00000000E+00  0.00000000E+00  0.00000000E+00  0.00000000E+00
  0.00000000E+00  0.00000000E+00  0.00000000E+00  0.00000000E+00  0.00000000E+00
  0.00000000E+00  0.00000000E+00  0.00000000E+00  0.00000000E+00  0.00000000E+00
  0.00000000E+00  0.00000000E+00  0.00000000E+00  0.00000000E+00  0.00000000E+00
  0.00000000E+00  0.00000000E+00  0.00000000E+00  0.00000000E+00  0.00000000E+00
  0.00000000E+00  0.00000000E+00  0.00000000E+00  0.00000000E+00  0.00000000E+00
  0.00000000E+00  0.00000000E+00  0.00000000E+00  0.00000000E+00  0.00000000E+00
  0.00000000E+00
Dipole Moment                              R   N=           3
 -1.50139777E+00  1.30296895E+00 -1.01306062E-03
Dipole Derivatives                         R   N=         153
  3.11102729E-01  4.67556794E-02  6.28252423E-05 -7.06817564E-02  1.43954302E-01
 -1.64101384E-04  1.32390223E-04 -1.39391769E-04 -1.32744650E-01 -1.09267764E-01
 -1.00779429E-01  6.05383167E-05 -2.80783958E-01 -1.16625720E-01 -6.92353644E-05
  1.53928702E-04 -3.44099254E-05 -1.44375961E-01 -6.63413792E-03 -1.74712280E-02
  3.32523405E-05  1.29754512E-01  1.51298381E-01 -1.20822317E-04 -4.40139820E-05
 -1.52745410E-04 -1.26050138E-01 -2.14355006E-01  1.11433186E-01 -7.34776294E-05
 -1.95617161E-02  7.07876853E-02 -1.18084912E-04 -5.77923085E-06 -8.95322159E-05
 -1.42469006E-01  7.32322717E-01 -3.00165663E-01  2.82668247E-04 -1.78782393E-01
  2.44504600E-01 -1.02217091E-04  2.19740927E-04 -1.26642366E-04  1.18447700E-01
 -4.05636810E-01 -1.74901417E-02 -7.79062468E-05 -1.32817828E-01 -2.24717403E-01
  1.10167270E-04 -2.25280850E-05  1.34984261E-04  2.83654761E-02 -1.42393456E+00
  2.90376521E-01 -4.14352411E-04 -1.26300941E-01 -3.87207797E-01  9.54334710E-05
 -1.82510158E-04  1.80798045E-04 -1.55775237E-01  2.00645857E+00 -4.74557779E-01
  6.04029144E-04 -8.11135222E-01  1.06734704E+00 -5.77585873E-04  7.93315030E-04
 -5.17771804E-04  2.88077185E-01 -3.39093913E-01  1.00940007E-01 -9.10814212E-05
  5.74452817E-01 -3.49146768E-01  2.26853481E-04 -3.47749557E-04  1.29312764E-04
 -1.45948389E-01  7.36355326E-01 -2.92259202E-02  1.80005243E-04  1.36307631E-01
  2.58523685E-01 -1.57143073E-04  9.41166975E-05 -1.95321994E-04 -7.98239595E-02
 -1.36528344E+00  4.11338846E-01 -4.23403559E-04  8.17006573E-01 -7.57295750E-01
  3.81489155E-04 -6.59165049E-04  3.08035105E-04 -3.50295040E-01  6.55839271E-02
 -3.13308741E-02  3.11654604E-06  1.63472345E-02 -9.35479337E-02  1.25803836E-04
 -2.28684260E-05  1.16735433E-04  1.35726274E-01 -6.92265698E-02  6.74603813E-02
 -7.89912461E-05  7.19827429E-02  3.20897865E-02  7.54984704E-05 -8.23067127E-05
  7.46632117E-05  1.47539501E-01 -5.38652010E-02 -7.21730052E-02 -4.10409680E-07
 -7.27217682E-02  2.83018816E-02  4.41258343E-05  1.23501951E-06  4.51711104E-05
  1.39273876E-01  7.46164362E-02  2.39338411E-02 -2.78605129E-05 -1.05200366E-03
 -3.09083729E-02  9.53720172E-05 -1.52818431E-05  9.97712847E-05  1.49220160E-01
 -6.13449513E-03 -4.07280841E-02 -1.00449141E-05 -2.75440372E-02  4.96449150E-02
  4.67231200E-05 -1.55417359E-05  4.43172263E-05  1.48406042E-01  6.69921856E-02
  3.16836617E-02 -2.89067512E-05 -2.44698867E-02 -8.70025273E-02  1.07723363E-04
  3.01817565E-06  1.22027064E-04  1.22426168E-01
Number of Normal Modes                     I               45
Vib-LE2Fix                                 I               14
Vib-NDFDPol                                I                0
Vib-NumROA                                 I                0
Vib-NDim                                   I               17
Vib-NDim0                                  I               17
Vib-LFlags                                 I                8
Vib-IFlags                                 I   N=         360
           0           0           1           0           0           0
           0           0           0           0           2           0
           0           0           0           0           0           0
           3           0           0           0           0           0
           0           0           4           0           0           0
           0           0           0           0           5           0