S1 frequencies and S0-S1 NAC vector                                     
Freq      RPBEPBE TD-FC                                               6-31+G(d)           
Number of atoms                            I               17
Full Title                                 C   N=           3
S1 frequencies and S0-S1 NAC vector 
Route                                      C   N=           8
#P PBEPBE/6-31+G* Geom=Checkpoint NoSymm TD=(Nstates=2, Root
=1, NAC) Freq IOp(7/32=5)           
Charge                                     I                0
Multiplicity                               I                1
Number of electrons                        I               76
Number of alpha electrons                  I               38
Number of beta electrons                   I               38
Atomic numbers                             I   N=          17
           6           6           6           6           6           6
           8           6           6           6           8           1
           1           1           1           1           1
Current cartesian coordinates              R   N=          51
  2.32022642E+01 -3.53506246E+01 -9.65302626E-03  2.10059406E+01 -3.67881094E+01
 -1.59788581E-02  2.10915463E+01 -3.94614505E+01 -3.18427198E-02  2.34527397E+01
 -4.07024468E+01 -4.16837330E-02  2.56314244E+01 -3.92481659E+01 -3.52692267E-02
  2.56494613E+01 -3.65400275E+01 -1.89467375E-02  2.79267007E+01 -4.05733894E+01
 -4.55343515E-02  3.01101744E+01 -3.93185044E+01 -3.97051394E-02  3.03072107E+01
 -3.67010535E+01 -2.25938445E-02  2.79872940E+01 -3.53024079E+01 -1.27277422E-02
  3.20093288E+01 -4.09614321E+01 -5.28151746E-02  2.31149204E+01 -3.32826457E+01
  2.56267449E-03  1.91696509E+01 -3.58320399E+01 -8.56643849E-03  1.93482973E+01
 -4.05701618E+01 -3.60456244E-02  2.35988691E+01 -4.27644533E+01 -5.40911204E-02
  3.21615056E+01 -3.58102922E+01 -2.17928453E-02  2.80590151E+01 -3.32364594E+01
  4.96223222E-04
Real atomic weights                        R   N=          17
  1.20000000E+01  1.20000000E+01  1.20000000E+01  1.20000000E+01  1.20000000E+01
  1.20000000E+01  1.59949146E+01  1.20000000E+01  1.20000000E+01  1.20000000E+01
  1.59949146E+01  1.00782504E+00  1.00782504E+00  1.00782504E+00  1.00782504E+00
  1.00782504E+00  1.00782504E+00
Virial Ratio                               R      2.009985669263856E+00
SCF Energy                                 R     -4.964316798064140E+02
CIS Energy                                 R     -4.963522861828311E+02
Total Energy                               R     -4.963522861828311E+02
Post-SCF wavefunction norm                 R      1.000000000000000E+00
RMS Force                                  R      3.229684958664241E-05
RMS Density                                R      4.343677911963596E-09
Job Status                                 I                1
Nuclear derivative order                   I                2
Mulliken Charges                           R   N=          17
 -2.38518046E-01  2.70537707E-03 -1.99375120E-01 -2.99894496E-01 -1.64480668E+00
  1.37594998E+00 -2.33262118E-01  3.46771720E-01 -1.64076335E-01  2.26372576E-01
 -4.62828419E-01  2.06057276E-01  2.02284106E-01  2.07982104E-01  2.23712136E-01
  2.36528161E-01  2.14397784E-01
Cartesian Gradient                         R   N=          51
  2.08639823E-05 -8.04054663E-06  4.25504099E-06 -5.15202978E-06 -2.60815992E-05
  5.88921687E-06 -1.28197385E-05  2.18643744E-05 -1.06142549E-05  2.76850575E-05
 -5.14304208E-06 -3.37808653E-06 -3.52001250E-05  4.81478692E-05 -8.29192709E-07
 -3.60469421E-05 -1.74801216E-05 -1.71140899E-05  4.75507602E-05 -3.28710938E-05
 -3.24752232E-06  4.72799046E-05  1.98764733E-06  1.76627524E-05 -9.29170588E-05
  2.07597921E-05  6.30015226E-05  1.20149478E-04 -2.33012436E-05 -1.60300838E-05
 -6.77346335E-05  4.65496968E-05 -1.50190422E-05 -9.42611017E-09  1.13770624E-06
 -5.58221578E-06 -2.18572665E-06 -3.24677673E-06 -2.40786755E-06 -3.37112744E-06
  6.40107346E-06  1.06606392E-05  2.60243087E-06  2.23654849E-06 -1.36177966E-06
  1.92799809E-05 -2.90888917E-05 -3.60729455E-05 -2.99747866E-05 -3.83139292E-06
  1.01879087E-05
Cartesian Force Constants                  R   N=        1326
  6.18936453E-01  4.94715369E-02  6.86539973E-01 -1.86682723E-04  3.37005930E-03
  1.05692816E-01 -2.89003179E-01 -1.33873723E-01 -5.57257677E-04  7.03536987E-01
 -8.50927694E-02 -1.79580670E-01 -6.90169019E-04 -1.90040835E-02  6.22277808E-01
 -2.53280983E-04 -6.35438926E-04 -4.94535082E-02 -6.91701813E-04  2.98168752E-03
  1.18059081E-01  1.65120539E-02 -2.02301476E-02 -1.25145354E-04 -1.11024725E-01
 -1.53014286E-02 -2.61554635E-05  6.71229407E-01 -5.70976461E-02 -4.48227392E-02
 -2.50821191E-04  4.08064799E-02 -2.89479083E-01 -1.45148665E-03  3.94930631E-02
  6.17412787E-01 -3.51499873E-04 -2.94564012E-04  8.47352285E-03  3.09938444E-04
 -1.37729746E-03 -5.16234351E-02 -4.39388966E-04  2.96842909E-03  1.00117365E-01
 -2.80203292E-02 -1.36265491E-02 -5.50089197E-05  1.48289934E-02  5.48178166E-02
  3.14138421E-04 -2.64493614E-01  5.67831911E-02  5.73524420E-04  6.45348125E-01
 -2.95225191E-03  2.40110516E-03  2.81336378E-05  2.82606485E-02 -2.58558301E-02
 -2.06761353E-04  1.07195288E-01 -1.52071237E-01 -7.34552184E-04  9.54794456E-03
  7.16944380E-01  1.12793564E-05  3.91823391E-05 -2.36296762E-03  1.54262324E-04
 -2.38332937E-04  4.48649385E-03  8.65958138E-04 -6.68955137E-04 -4.65493884E-02
 -4.97109958E-04  3.60640737E-03  1.08674892E-01  1.03609255E-02  2.80789185E-02
  1.58022955E-04 -7.80904860E-03 -1.50212974E-02 -7.59929619E-05 -5.92182957E-02
  1.49278387E-02  1.51133103E-04 -2.49889291E-01 -1.53820253E-01 -7.18793879E-04
  6.30527483E-01  3.18952748E-02 -1.10581518E-02 -9.31184991E-05 -7.55824778E-03
 -1.93769784E-02 -8.90243542E-05 -1.98147335E-02  3.69485040E-02  2.10473262E-04
 -9.41398652E-02 -2.04019860E-01 -8.10105490E-04  9.32223670E-02  6.24697319E-01
  1.69090255E-04 -7.95035690E-05 -1.48183412E-03 -3.70855277E-05 -8.53323370E-05
 -2.03759792E-03 -5.31645951E-05  1.82344548E-04  3.75000526E-03 -3.71931759E-04
 -7.40672553E-04 -5.29625658E-02  4.02609084E-05  2.97881834E-03  1.17091355E-01
 -2.05874043E-01  7.74221381E-02  6.00032221E-04 -5.34055153E-02 -2.58632273E-02
 -1.10780040E-04 -2.59771297E-03  2.33118741E-02  1.38989463E-04  1.01580972E-02
 -2.34458534E-02 -1.45976198E-04 -9.84157753E-02 -2.24726855E-03  3.82895950E-05
  6.79816995E-01  7.13878252E-02 -1.45786426E-01 -6.30948160E-04 -5.57693141E-03
  2.39375489E-02  1.33827475E-04  1.57960318E-02 -1.39856729E-02 -6.86677849E-05
 -4.34618550E-02 -2.44634307E-02 -1.53918416E-04  7.39812670E-03 -2.48922546E-01
 -1.17132993E-03  1.97996342E-02  5.96843491E-01  5.71167794E-04 -6.45397477E-04
 -4.97572666E-02  1.63821034E-05  1.46764200E-04  2.96869423E-03  9.11265672E-05
 -7.95460673E-05 -5.08122424E-03 -2.59530524E-04 -1.65852763E-04  7.15333623E-03
  9.26150130E-05 -1.14949635E-03 -5.65269329E-02 -3.08083559E-04  2.89373357E-03
  1.20686657E-01  1.00271240E-02  6.25575174E-03  2.63821131E-05 -7.04372692E-03
 -6.07394545E-03 -2.93362707E-05  3.85194316E-03 -7.15252672E-04 -3.67199108E-06
 -6.18865133E-02  2.16918766E-02  1.84729474E-04 -1.58086542E-01  7.96555900E-02
  6.36292284E-04 -2.01454376E-02  1.89018540E-02  1.34052133E-04  5.80387241E-01
  4.31733977E-03 -1.10112202E-02 -9.69686577E-05 -3.57224337E-03 -9.49302477E-04
  2.73849998E-06  2.85767634E-03 -1.82381987E-03 -3.68981210E-05 -1.57216251E-02
  1.88355684E-02  1.27686766E-04  5.51784837E-02 -1.34480960E-01 -7.30768066E-04
  2.43239713E-02 -2.00425020E-02 -1.67744888E-04  2.45541447E-02  3.13958034E-01
  9.95269704E-06 -1.07104693E-04  5.01714464E-03 -9.12633865E-06  1.78092674E-05
 -8.51652278E-04  2.07824666E-05 -4.55751760E-05  4.31476062E-03 -2.87448621E-05
  8.94538293E-05  6.27920379E-04  4.62092976E-04 -7.51113449E-04 -2.59302845E-02
  1.84294478E-04 -1.48833669E-04  3.06643660E-03 -3.43394669E-04  1.66054991E-03
  4.62459386E-02 -9.76861315E-03 -2.99710202E-03 -2.14277720E-06  7.24627956E-03
  8.53754601E-03  3.99299859E-05 -7.55585254E-04 -1.11515291E-02 -6.27538597E-05
 -1.60314941E-03  6.83419181E-03  4.77930698E-05 -7.02913732E-02 -1.92441141E-02
 -5.54147262E-05  1.06887203E-02 -3.89353751E-04 -2.26285320E-05 -2.54264597E-01
 -6.11257184E-02 -2.02663640E-04  6.55180636E-01 -8.75969201E-03 -5.48105949E-04
  8.72740022E-06  4.96438862E-03 -2.64888979E-03 -1.99686102E-05 -1.82788843E-02
  3.00857733E-03  1.94694004E-05  2.78708736E-02 -2.48445587E-03 -3.66719190E-05
 -4.81506438E-02  3.51709100E-02  3.08782990E-04  1.27272560E-02 -3.33620701E-03
 -3.93005277E-05 -6.32296807E-02 -1.69406975E-01 -7.08347997E-04 -1.03136758E-01
  7.15519141E-01 -5.24437776E-05  4.22641188E-06 -5.06679452E-04  2.69196192E-05
 -2.69947655E-05  2.85773467E-04 -1.18849017E-04  1.95249996E-05  1.53994435E-03
  1.87761405E-04 -2.85450290E-05  1.02266139E-03 -2.56886906E-04  2.82827745E-04
 -5.75431047E-03  8.36476001E-05 -1.56423164E-05  1.25252372E-03 -1.70003847E-04
 -6.89838660E-04 -5.05277057E-02 -1.25923688E-03  3.64020615E-03  1.68377389E-01
  1.93987534E-03 -2.66026351E-03 -1.82696653E-05 -1.94226784E-03 -3.91417191E-03
 -1.04931804E-05 -6.76716002E-03  4.55057603E-03  3.02015535E-05  5.81492515E-03
 -1.11645795E-03 -2.01887994E-05 -5.86500722E-03  6.39223131E-03  4.10540555E-05
 -3.96614332E-02  8.81508074E-03  8.82656034E-05  7.08880285E-04 -4.82758985E-02
 -3.02000717E-04 -1.20604797E-01  2.07540214E-03  1.56956206E-04  6.84714611E-01
  2.74147802E-03 -4.40690568E-03 -5.82200758E-05 -3.31028478E-03  5.49945014E-03
  2.19761189E-05  1.76542016E-02 -5.26824657E-03 -4.25739863E-05 -2.35426332E-02
  1.84373080E-04  3.22425678E-05  4.68651168E-02 -1.59279708E-02 -1.25702002E-04
 -1.31976565E-02  1.69806696E-02  7.84845704E-05 -7.68577879E-02 -2.70590585E-02
 -2.14348183E-04  1.26867069E-02 -3.28717588E-01 -1.83229649E-03  2.48032248E-02
  6.63249656E-01  2.15315388E-05 -4.90414582E-05  4.20070465E-03 -1.83233992E-05
  2.99139161E-05  8.41407965E-04  1.12653011E-04 -3.18138173E-05 -9.43135908E-05
 -1.58544856E-04  1.14478336E-05 -2.13584965E-03  3.00565924E-04 -8.31887742E-05
 -3.91553674E-03 -6.41254038E-05  5.36649327E-05  6.12661085E-03 -4.94791176E-04
 -2.53894118E-04  2.00694762E-02  2.04221579E-04 -1.70014574E-03 -5.57646427E-02
 -8.94362908E-04  3.55457360E-03  6.04733204E-02 -5.44246949E-02 -1.21326983E-02
 -2.89160655E-05  7.61858426E-03  2.15460947E-02  1.11034413E-04  6.80266087E-03
 -1.32500410E-02 -8.08136765E-05 -5.66141683E-03  5.77761961E-03  5.43455473E-05
  2.22206108E-02 -4.59559832E-02 -3.03636633E-04 -2.76807686E-01 -9.22970383E-02
 -4.18126163E-04 -3.27744563E-02  5.75583463E-03  4.50812746E-05  1.98141922E-02
  2.32239989E-02  8.15413459E-05 -2.50200764E-01  8.98802367E-02  7.79702676E-04
  6.36692986E-01 -1.05547220E-02  2.40179356E-02  1.21417823E-04  1.04796876E-02
  1.63424927E-03 -8.84937062E-06 -1.49757071E-02  1.87435601E-03  2.75307372E-05
  2.46103867E-02 -6.64569928E-03 -8.58466834E-05 -4.95626957E-02 -4.06274496E-02
 -2.47535790E-04 -8.53178105E-02 -1.54037768E-01 -5.95569747E-04  1.11157221E-02
  1.39106243E-02  1.14573421E-04  2.03213227E-02 -4.97162660E-02 -2.91484198E-04
  1.02606322E-01 -1.43058282E-01 -7.47754437E-04  1.35528356E-02  6.61607336E-01
 -9.93048210E-06  1.25649447E-04  5.25600707E-03  5.60456344E-05 -2.74132433E-05
  2.76968160E-03 -9.20540303E-05  2.79401725E-05 -9.04575885E-04  1.54067190E-04
 -7.04306091E-05  4.24233353E-03 -3.08085483E-04 -2.47873058E-04  6.52139995E-03
 -3.93483490E-04 -5.90930917E-04 -5.04930852E-02  8.06977598E-05  1.33098378E-04
 -7.67901912E-03  1.33143273E-04 -3.39170284E-04 -4.96628182E-03  7.64798805E-04
 -7.00543790E-04 -2.98278278E-02 -2.80961119E-04  3.56132368E-03  9.54319553E-02
 -7.09022140E-05 -6.33962221E-04 -2.30292914E-06 -7.66411239E-04 -2.83892258E-03
 -1.59528195E-05 -5.17034059E-03  3.62362210E-03  2.59247262E-05  7.62156711E-03
  1.10179002E-03  6.55486509E-06 -7.41942732E-03  1.34985966E-03  1.45307751E-05
  9.81206854E-04  3.28363183E-04 -3.55960776E-06 -6.28427644E-02  8.41994212E-03
  1.26672732E-04 -2.32237256E-01  1.64563003E-01  1.28354219E-03  1.55681577E-02
  1.49448049E-02  1.23444351E-04 -5.51440630E-03 -2.76307806E-03 -1.28928235E-05
  2.88982803E-01  2.71958979E-03 -2.79419703E-04 -3.43391689E-06 -4.93165518E-04
  7.44058883E-04  5.89546579E-06  6.47200614E-03 -2.32345869E-03 -1.80427573E-05
 -1.01188525E-02  3.15227918E-04 -9.64300326E-06  1.33806899E-02 -8.88798983E-03
 -8.75431518E-05 -2.81454744E-03 -1.04671615E-03  6.47206959E-06 -1.60538359E-02
  2.33924974E-02  1.46683294E-04  1.74443103E-01 -1.85930223E-01 -1.05481951E-03
  2.06903510E-02 -4.42152369E-02 -4.17985781E-04 -1.80895702E-03  5.74947683E-03
 -2.22354578E-05 -1.86720936E-01  2.10920672E-01  2.81186193E-05  1.85760734E-06
 -3.09124991E-04 -8.32589697E-06  2.68921024E-06 -3.27365983E-04  4.70481768E-05
 -1.34830257E-05  1.89120638E-04 -7.12726931E-05 -1.52445854E-05  2.74088420E-03
  1.00279041E-04 -7.43772197E-05  2.37080939E-03 -3.58606748E-05 -1.33531271E-05
 -8.64326896E-04 -4.77065285E-05  1.12388984E-04  3.10321842E-03  1.37718797E-03
 -1.02146321E-03 -5.47625062E-02  1.20726571E-04 -3.91905020E-04  9.98589046E-03
  2.85756833E-05 -2.20551091E-05  1.05279949E-02 -1.52353230E-03  1.40399898E-03
  3.11662380E-02 -5.43678257E-02  1.32304430E-02  1.01307037E-04  4.92539079E-03
 -2.64653279E-02 -1.59223527E-04 -4.26164118E-03 -1.94856237E-03 -6.91631469E-07
 -6.69849631E-04  2.76521505E-04  1.53280562E-06 -4.10591823E-03 -6.31733203E-04
  3.87523222E-06  1.08200692E-03  2.78721166E-02  1.65213529E-04 -1.57443690E-03
  2.26632256E-03  1.51006602E-05  8.38788377E-04  5.87485969E-04  2.51662673E-06
  7.86049174E-05 -6.10085348E-04 -4.65449268E-06  1.76661093E-03  7.08973104E-04
  3.12148201E-06  1.58349602E-04  3.25696959E-05  5.99548770E-07  5.51498737E-02
  1.23262459E-02 -3.22976326E-01 -1.74325481E-03  3.07778981E-03 -1.29198444E-02
 -9.40335586E-05 -3.33714523E-03  1.11897986E-03 -2.61994795E-05  1.95589134E-04
  3.32998391E-04  4.68805984E-06  2.13877743E-03  1.18122415E-03 -2.15168134E-05
 -1.00748145E-03 -1.06945954E-02 -7.55890981E-05  1.74798857E-04 -5.36395845E-04
 -1.32224935E-07 -4.77764004E-04  5.66370588E-05  1.67127649E-06  2.77338196E-04
  1.30040336E-04  5.29041645E-06 -1.29375891E-03  8.81564407E-04  1.43759427E-05
  1.70006664E-04 -1.65355926E-04 -4.77917565E-06 -1.32241304E-02  3.43424279E-01
  9.10429021E-05 -1.73939722E-03 -2.83332660E-02  1.76675472E-05 -6.36704494E-05
  2.46316197E-03 -9.45633409E-06 -3.02420370E-05  6.25797574E-03 -4.14494597E-07
  4.04145511E-06 -5.26273588E-04  2.24340466E-05 -1.94005463E-05  4.54602365E-03
 -1.57172705E-06 -1.05626566E-04  2.18684551E-03 -1.30809550E-06 -1.32388280E-06
 -5.19495547E-04 -2.87263813E-06  1.20127954E-07 -1.37006540E-04 -3.90153613E-07
  7.46614687E-06 -7.70092235E-04 -7.28136761E-06  1.11583560E-05 -1.46682149E-03
  2.92828225E-06 -3.86148305E-06  6.00880253E-04 -1.10620443E-04  1.91372824E-03
  1.99544838E-02 -1.87226002E-02  1.36250786E-02  1.00988059E-04 -2.66177868E-01
  1.09994617E-01  8.73241222E-04  2.16368790E-03 -1.31115088E-03 -7.32127436E-06
  1.47856430E-03 -2.08467090E-04  2.32307555E-06  3.39559619E-04 -8.03214170E-04
 -5.03664535E-06 -2.07799239E-03 -3.98286428E-03 -1.42141322E-05 -1.25649704E-04
  2.30765136E-04  5.44865883E-07  3.15614560E-04 -5.48027741E-04 -3.85343379E-06
 -4.76919570E-04  1.90121019E-05 -9.64127020E-08 -3.31531265E-04  1.13270249E-03
  7.89857938E-06 -2.56075300E-04  2.10056945E-04  1.79849966E-06  9.52342758E-04
 -2.05127378E-04 -6.50398807E-06  2.82303790E-01 -1.57530002E-02  1.05304622E-02
  6.17188824E-05  1.10420614E-01 -1.12548205E-01 -5.70222708E-04  2.79184956E-02
 -9.01156661E-03 -9.47069110E-05 -1.06696258E-03 -5.44545059E-03 -6.19232898E-05
 -1.17011635E-03 -7.05634959E-04 -3.75289984E-06 -3.14834721E-03 -1.69902053E-03
 -5.27401987E-05  1.59037642E-04  7.77167095E-05  5.47189244E-06  1.48379940E-04
  7.63501816E-05  5.22037784E-07 -1.30550147E-04 -3.14273936E-04  1.18279212E-06
 -3.99093058E-04  1.00160152E-03  4.67004100E-06  7.70872716E-06 -3.55711436E-05
 -3.06619690E-07  2.66459879E-04  8.61633198E-04  3.03286111E-05 -1.18294457E-01
  1.16736268E-01 -7.51804597E-05  2.98353968E-05  2.68936924E-03  8.77411701E-04
 -5.61961754E-04 -3.40312877E-02  1.66010003E-04 -7.19044098E-05  2.33816114E-03
 -2.82719970E-06 -6.22770113E-05  5.32669834E-03 -7.40322599E-06 -3.56586353E-06
  1.18715693E-04 -8.21473550E-06 -5.10767091E-05  7.70979738E-03  1.98693673E-06
  4.46774122E-06 -8.53916109E-04 -5.02836733E-07  5.98877366E-07 -1.88930319E-05
 -7.14716772E-07  2.42732874E-06 -4.88056397E-04 -1.30323497E-06  2.30891362E-06
  2.44997314E-04 -1.91958979E-07 -1.24491252E-08 -4.12644865E-06 -3.55152564E-06
  3.06794043E-05 -4.32359315E-03 -9.47301470E-04  6.63487542E-04  2.38572444E-02
  1.54143022E-03  8.00972658E-04  8.82876195E-06  4.19669340E-03  2.55217618E-03
  1.12860001E-05 -2.50708754E-01 -1.24703429E-01 -4.39241028E-04 -1.83066586E-02
 -1.54155343E-02 -6.73910149E-05 -8.20784785E-04  3.65457176E-03  2.91225939E-05
 -2.64774073E-04  3.13588872E-04  8.91285628E-07 -2.46119882E-03 -8.73678401E-04
 -6.54975726E-07  2.12840050E-04  8.27948399E-04  5.11059296E-06 -2.90277512E-06
 -3.98873496E-04 -2.23643571E-06  1.55065709E-04  1.93368260E-04  1.82050258E-07
  2.46744958E-05 -1.19934278E-04 -1.96915477E-06  1.18355352E-04  1.95846053E-04
  1.97230233E-06  7.18053616E-04 -3.37238846E-04 -6.61554268E-06  2.64600927E-01
  2.15494918E-03 -5.24540606E-03 -5.79694181E-05 -2.65998746E-02 -1.10694606E-02
 -4.09444482E-05 -1.25257654E-01 -1.33306354E-01 -4.72223350E-04  1.38867585E-02
  1.01880567E-02  3.67543055E-05  1.93151057E-03 -8.46947190E-04 -3.41150595E-05
  7.15480223E-04 -4.00300430E-04  2.27070550E-06  1.26554416E-03  2.72394534E-04
 -9.03674524E-06  4.23309131E-04 -2.25631539E-04 -1.28069102E-06  6.10198769E-05
 -1.04873946E-04 -3.84085634E-06 -1.61177091E-04  3.98391561E-04  7.42722898E-06
 -1.04241980E-04  1.37701455E-04  5.42998390E-06 -1.38910280E-03 -7.41062063E-04
 -7.27329461E-06  2.56485585E-04  9.58938682E-04  2.20227074E-05  1.33297533E-01
  1.39148730E-01  1.70967213E-05 -5.62008967E-05  4.42052815E-03 -1.62654755E-04
 -8.13121333E-05  1.31559310E-03 -4.32621079E-04 -4.66375110E-04 -2.46434477E-02
  9.85645409E-05  6.88513298E-05  1.15828364E-03  1.60738864E-05 -3.37398789E-05
  4.63775601E-03  2.43775853E-06  1.94562013E-06 -8.77333051E-04  1.33547440E-05
 -8.75009885E-06  1.60836066E-03  2.51762816E-06 -4.61615339E-07 -6.84653788E-05
  2.17884827E-06 -4.93063086E-06  5.44751715E-04 -4.07149934E-06  9.29318388E-06
 -8.80374626E-04 -2.46650812E-06  4.49430235E-06 -7.31257630E-04 -7.67318701E-06
 -8.37765855E-06  6.13544739E-04 -1.92423245E-06  2.27838949E-05 -2.91524698E-03
  4.65488582E-04  5.30871458E-04  1.86933657E-02 -8.83545373E-04 -2.84034838E-04
 -1.46922030E-06 -4.75989619E-03  1.60110100E-03  2.00566526E-05  3.96022656E-03
  2.65760156E-02  1.55605118E-04 -5.53344915E-02  1.77979986E-02  1.33389670E-04
  4.29513998E-03 -2.58899978E-02 -1.53475488E-04 -4.38129476E-03 -1.03196041E-03
  4.04087358E-06  2.90249179E-03  2.64014611E-04 -5.30275808E-06 -4.07079433E-04
 -9.56133566E-04 -6.61727037E-06  2.70917097E-04  4.12687442E-04  2.68735742E-06
  5.43292887E-04 -1.09057063E-03 -6.80112296E-06 -1.13253312E-04  2.72889378E-04
  2.37780830E-06  1.73715633E-04  1.49018254E-05 -7.52950419E-07  1.42900759E-05
  1.44705711E-03  8.53302100E-06  1.01948226E-03 -5.04563775E-04 -7.51740207E-06
  5.31021307E-02  1.21956259E-04  4.49951372E-04  6.33365779E-06  2.43863325E-03
  9.78371535E-04 -2.93933565E-05 -1.13085800E-03 -8.51465258E-03 -6.08952408E-05
  1.47730422E-02 -3.27563669E-01 -1.77950004E-03  4.08101971E-03 -1.43953838E-02
 -1.13854057E-04 -3.04809840E-03  1.13903462E-03 -2.35844609E-05  1.34268973E-03
  9.14185896E-04  2.55739590E-05 -4.50760289E-04 -8.28124292E-04 -1.31729166E-06
  1.72965431E-04  6.04118946E-04  4.35048257E-06  6.73258189E-04 -6.67204844E-04
 -9.20093987E-06 -1.46940561E-04  3.75771658E-04  2.40804096E-06 -6.93104313E-06
 -9.09471731E-05  3.53927060E-06 -1.59194129E-04 -5.19054133E-04 -4.09063323E-06
  8.79932528E-05  8.08329680E-04  2.35949897E-05 -1.84736232E-02  3.47370229E-01
  3.32402621E-06  6.61427787E-06 -6.34889950E-04  2.51307475E-05 -2.95849585E-05
  5.49326062E-03 -1.11724533E-05 -8.69659086E-05  1.92499432E-03  1.18111209E-04
 -1.78375072E-03 -3.05386396E-02  2.21781671E-05 -8.46352726E-05  4.04202549E-03
 -9.83968017E-06 -2.52465451E-05  5.58115265E-03  2.54307361E-06  2.76717240E-05
 -3.63645529E-03 -3.76474435E-06 -1.01353273E-06 -6.46111933E-04 -5.19180747E-07
  4.57223988E-06 -8.01279316E-05  6.10857015E-06 -6.63373114E-06  7.84285931E-04
 -4.64725783E-07  1.84624870E-06  7.63193947E-05 -8.90404627E-07  3.45220016E-06
 -6.77574521E-04 -9.12244581E-07 -5.96008120E-06  2.03001318E-04 -4.92409896E-06
  2.35758281E-05 -3.18520361E-03 -1.43384847E-04  1.95395655E-03  2.16946900E-02
 -4.53829352E-04 -1.15228289E-03 -7.56910172E-06 -2.74710092E-04  3.02663607E-04
  1.91519006E-06 -4.47079694E-05  3.97326650E-05  2.78438329E-08  2.85877427E-04
 -6.25041814E-05 -3.59721034E-06 -6.77606442E-04  8.17026112E-04  5.29854405E-06
 -1.27161958E-03  3.80745124E-03  3.59601020E-05  2.74573573E-03  1.79302851E-03
  3.09250381E-05  1.22089240E-03  5.28762567E-04 -6.85030434E-06 -2.86391592E-01
 -1.16086567E-01 -5.65902453E-05 -1.64672233E-02 -1.18767364E-02 -5.00044118E-05
  3.53534031E-06  4.81170784E-04 -1.20901426E-05  5.03410381E-06  2.86688655E-05
 -3.50742001E-07 -1.14056983E-04 -7.10828409E-05 -1.42083286E-07  3.11244352E-07
 -1.86196210E-05  8.49447105E-07 -3.02530522E-05 -3.65631717E-05 -4.52952643E-07
  3.00413368E-01  7.12027405E-04  7.71474538E-04  2.43974542E-06  1.20614207E-04
 -2.77408254E-04 -1.52978997E-06  2.63944881E-04 -3.89605260E-05  4.06416380E-07
 -5.99531259E-04  1.84818573E-04  6.25626651E-06  2.33488625E-03 -6.25922720E-04
 -4.40937030E-06  2.40234250E-03 -2.38833134E-03 -3.04651365E-05 -1.93908788E-03
 -6.40789968E-03 -9.44872260E-05 -2.72095798E-02 -9.13035752E-03  2.66174698E-05
 -1.12154877E-01 -1.07664564E-01 -3.01717447E-04  1.55700851E-02  1.18652466E-02
  5.89040463E-05 -5.78179131E-04  1.39824410E-03  3.57437668E-05 -4.84335466E-06
 -9.10494646E-06  7.41216604E-07  8.43518144E-05  4.99481759E-05  9.56026925E-09
 -3.31814547E-05  1.56403166E-05 -1.39097738E-06  7.00030251E-05  5.37231562E-05
  1.33790193E-07  1.21553947E-01  1.11433833E-01  2.00650953E-06 -1.12141830E-06
  6.11252733E-04  2.18284903E-06  1.20125332E-06  6.37068147E-05  5.86505503E-06
 -3.18590452E-06 -1.15070196E-04 -6.96000121E-06  7.88437097E-06 -9.55604917E-04
  1.42029115E-05 -2.50275166E-06 -2.84218018E-04  2.28365499E-05 -2.76223822E-05
  2.64315401E-03  1.00873652E-05 -1.01648884E-04  8.57921733E-03 -2.09218976E-04
 -9.24277352E-05 -2.67173254E-03  5.75370358E-05 -2.49807869E-04 -1.05397919E-02
  5.96697441E-05  1.02587819E-04 -3.69857449E-03 -2.53158015E-05  6.01690074E-05
 -5.21798021E-03  6.11529505E-08  8.79935069E-07 -1.79688588E-04  3.59357660E-07
  2.47557180E-07 -4.82495423E-06  3.28116790E-07 -1.71955864E-06  2.92726197E-04
  1.75451153E-07  3.58652525E-07 -2.00454465E-05  7.21008390E-05  2.87271615E-04
  1.36702301E-02  2.27170031E-03 -1.29407645E-03 -1.07971688E-05 -1.45581005E-04
  2.23158484E-04  1.31518562E-06  5.22557153E-04  6.52179256E-05  3.78574519E-08
  3.29164201E-04 -1.46255722E-03 -9.11108412E-06 -5.14464883E-03 -7.01763186E-04
  1.93084957E-06  2.17625711E-03 -2.76800695E-02 -1.73572280E-04  5.81906488E-04
 -3.92359575E-04 -3.55923015E-06 -5.58551371E-03  5.69070126E-03  4.67457005E-05
  2.81687207E-03  2.39964186E-02  1.48919044E-04 -5.34318248E-02 -8.58000059E-03
 -4.57417101E-05  1.05054219E-03 -5.72197390E-04 -5.95452436E-06 -2.69401370E-04
  9.45444636E-04  5.47780411E-06 -3.20961370E-06  3.09501174E-06  7.32849399E-09
 -2.27596379E-05  4.26442966E-05  3.66573418E-07 -3.71873461E-04 -2.38589279E-04
 -1.07044423E-06  1.05084358E-03 -5.92922354E-04 -5.91816439E-06  5.41749693E-02
  2.36185838E-03  1.00446990E-03  2.60735439E-05 -5.80302432E-04 -3.65814331E-04
  1.52813040E-06  6.75850949E-04  2.82587188E-04  3.12285703E-07 -2.07728530E-04
 -8.36894592E-04 -8.32104389E-06 -1.81272884E-03  1.87783804E-03 -2.39101909E-05
 -6.12405749E-04 -1.20972266E-02 -1.02438258E-04 -2.47419099E-04  3.57111918E-04
  1.88637916E-05  2.78812058E-03 -8.58791542E-04 -3.33770771E-05 -2.19229261E-03
 -9.91130706E-03 -7.10415898E-05 -8.68121652E-03 -3.28188112E-01 -1.92559083E-03
 -7.22839394E-04 -1.49678653E-04 -7.54946416E-06 -9.60175924E-04  1.46275850E-04
 -3.27920526E-07 -4.05679028E-05 -1.41414096E-05 -9.48641230E-07 -4.21281050E-05
  1.18521931E-05 -2.95814531E-07 -2.25784289E-04 -1.14679606E-04  1.96788821E-06
 -4.80958103E-05  7.69620754E-04  1.94362832E-05  1.05478553E-02  3.48086890E-01
  4.40787670E-06  3.03449041E-05 -3.52180857E-03 -1.46556644E-06  2.00368677E-06
 -4.22007382E-04 -1.43612482E-06  2.11562112E-06  1.05604764E-04  6.17807898E-06
 -8.13301901E-06  5.97785785E-04 -1.26964562E-05 -2.99778471E-05  5.81519091E-03
  7.40782828E-06 -7.99750823E-05  4.22496028E-03  8.66865816E-08  1.92333675E-05
 -2.63394493E-03  1.64061254E-05 -1.89337770E-05  3.34604388E-03 -1.47793560E-05
 -8.14145368E-05  1.37407662E-03 -4.09494960E-05 -1.94446484E-03 -2.58620948E-02
  3.08153932E-06 -1.19818441E-05  1.45533268E-03 -6.02286361E-06 -8.82652720E-07
  3.10896018E-04  1.01747245E-08 -8.00543028E-07  1.51959899E-04 -1.78035027E-07
  5.12048341E-08  1.64190408E-05 -1.54489405E-06  1.72041877E-06 -3.80681427E-04
 -9.42981054E-06  1.54760534E-05 -2.17275590E-03  5.09242629E-05  2.10561891E-03
  1.75950231E-02
Nonadiabatic coupling                      R   N=          51
  8.06087234E-05 -4.03141272E-05  6.37164232E-03 -5.58434165E-05 -3.01399193E-05
 -5.88434131E-03 -3.38918907E-05  1.12317637E-04 -9.67894670E-03  9.42420038E-05
 -2.93613660E-04  5.34507092E-02  6.21279037E-05 -3.21040434E-04  4.23323304E-02
 -1.39371173E-04 -1.36515467E-06 -9.22252095E-03 -1.86672001E-04  1.30418777E-04
 -3.26121608E-02 -8.98839942E-05  7.79327329E-04 -1.17272121E-01 -1.48752616E-04
  1.16767859E-03 -1.86178073E-01  2.10452509E-04 -3.43510659E-04  6.73817714E-02
  2.84776852E-04 -9.63733273E-04  1.62281548E-01  1.11531722E-05 -5.31524184E-05
  9.68159905E-03 -7.78734642E-07  2.20310185E-06 -3.67579179E-04 -1.74622832E-05
  9.34588004E-05 -1.55991312E-02  7.10829960E-06 -2.86369991E-05  5.43617734E-03
 -9.13541094E-05  1.35223093E-04 -2.81847970E-02  1.28825203E-05 -3.20235004E-04
  5.19684965E-02
Dipole Moment                              R   N=           3
 -3.09321064E-01  4.29254508E-01  2.49909218E-03
Dipole Derivatives                         R   N=         153
 -4.94956696E-01 -1.68014154E-01 -7.45393805E-04  1.51076504E-01  1.07795378E-01
  1.64276844E-03  1.38025172E-03  1.83337657E-03 -1.89030873E-01  2.68644340E-01
  2.01040033E-02 -2.73138483E-04  9.47191677E-02  1.90916986E-01  1.67461522E-03
  3.47715774E-04  1.81933464E-03 -1.15936543E-01 -4.38493306E-01 -4.61006119E-02
 -1.84382461E-04  1.19857683E-02 -7.79814241E-02  7.46232012E-04 -9.90886096E-05
  6.52769739E-04 -2.04936959E-01  3.68749538E-01  7.17755728E-02 -3.90237283E-05
 -1.05478453E-01  2.59462369E-02  1.09056900E-03 -9.04272952E-04  9.01984577E-04
 -1.40796930E-01  4.67824825E-01 -9.46643309E-02 -1.10585510E-03 -4.07782397E-01
  1.27738387E-01  9.40371889E-04 -2.98122607E-03  6.05447237E-04  3.71256827E-02
  3.16097983E-01  1.43059554E-01  6.34438659E-04 -1.39214561E-02 -1.56327893E-01
 -1.30120723E-03 -1.61649944E-04 -1.32281923E-03  5.04241622E-02 -8.33605505E-01
  1.37047864E-02  8.67346566E-04  3.24277319E-01 -5.31544844E-01 -3.19600724E-03
  2.26535414E-03 -2.44348824E-03 -7.70950608E-02  1.45915003E+00 -4.80008621E-01
 -4.34380963E-03 -2.27010974E+00  2.07850403E+00  1.40935172E-02 -1.66324189E-02
  1.23383803E-02  3.08327730E-01 -7.77136508E-01  3.33221538E-02  1.05467409E-04
  1.96790058E+00 -9.82246776E-01 -6.09502958E-03  1.15672456E-02 -5.19780954E-03
 -3.74598776E-01  9.60427723E-01 -1.75823037E-01 -1.65339579E-03 -9.74589714E-01
  1.68856443E-01  2.65472232E-03 -5.96606274E-03  2.40471466E-03 -1.09204080E-01
 -1.33804338E+00  6.58887116E-01  5.61063305E-03  1.16706586E+00 -8.82274969E-01
 -6.21011364E-03  9.61830126E-03 -6.10418062E-03 -1.27386449E-01  3.60731833E-02
 -2.78925508E-02 -6.84958980E-05  2.57483577E-02 -1.00754610E-01 -1.47068903E-03
  1.89999328E-04 -1.45240895E-03  1.44287750E-01 -8.63761609E-02  7.82415681E-02
  6.85381886E-04  9.47292558E-02  3.26555040E-02 -7.12305289E-04  7.25378651E-04
 -6.90660114E-04  1.38232988E-01 -4.47223692E-02 -7.11715335E-02 -1.84626450E-04
 -6.57845059E-02  1.79703932E-02 -7.62726054E-04 -1.90422307E-05 -6.53335437E-04
  1.61173049E-01  8.70087249E-02  3.71966082E-02  2.90644336E-04  1.27682186E-02
 -4.64293569E-02 -1.19945434E-03  1.77686818E-04 -1.25529759E-03  1.53116264E-01
 -4.08231940E-02 -2.02692436E-02  2.05838471E-04 -1.96246548E-02  7.55613212E-02
 -6.83526425E-04  8.61114455E-04  5.83654373E-05  1.98390548E-01  9.01807721E-02
  2.76527207E-02  1.98370976E-04  7.01988314E-03 -4.83848017E-02 -1.21173724E-03
 -3.69286232E-04 -1.49437338E-03  1.47907497E-01
Number of Normal Modes                     I               45
Vib-LE2Fix                                 I               14
Vib-NDFDPol                                I                0
Vib-NumROA                                 I                0
Vib-NDim                                   I               17
Vib-NDim0                                  I               17
Vib-LFlags                                 I                8
Vib-IFlags                                 I   N=         360
           0           0           1           0           0           0
           0           0           0           0           2           0
           0           0           0           0           0           0