optimize on S1 potential, frequencies, S0/S1 NAC vector                 
Freq      RwB97XD TD-FC                                               def2SVP             
Number of atoms                            I                4
Info1-9                                    I   N=           9
          17          15        1002           0           0         100
           6         218        -801
Full Title                                 C   N=           5
optimize on S1 potential, frequencies, S0/S1 NAC vector     
Route                                      C   N=           8
#p wB97XD/def2SVP TD=(Singlet,Nstate=2,Root=1,NAC) scf(MaxCy
cle=1000) NoSymm Opt Freq           
Charge                                     I                1
Multiplicity                               I                1
Number of electrons                        I                8
Number of alpha electrons                  I                4
Number of beta electrons                   I                4
Number of basis functions                  I               29
Number of independent functions            I               29
Number of point charges in /Mol/           I                0
Number of translation vectors              I                0
Atomic numbers                             I   N=           4
           1           6           1           1
Nuclear charges                            R   N=           4
  1.00000000E+00  6.00000000E+00  1.00000000E+00  1.00000000E+00
Current cartesian coordinates              R   N=          12
  7.22778314E-01  4.15611802E+00 -3.21792826E-02 -1.27934073E+00  4.15849904E+00
  5.25786668E-01 -2.99598583E+00  5.49400875E+00 -5.88472233E-02 -2.99588189E+00
  2.82096408E+00 -5.68149376E-02
Number of symbols in /Mol/                 I                0
Force Field                                I                0
Atom Types                                 C   N=           4
                                                
Int Atom Types                             I   N=           4
           0           0           0           0
MM charges                                 R   N=           4
  0.00000000E+00  0.00000000E+00  0.00000000E+00  0.00000000E+00
Integer atomic weights                     I   N=           4
           1          12           1           1
Real atomic weights                        R   N=           4
  1.00782504E+00  1.20000000E+01  1.00782504E+00  1.00782504E+00
Atom fragment info                         I   N=           4
           0           0           0           0
Atom residue num                           I   N=           4
           0           0           0           0
Nuclear spins                              I   N=           4
           1           0           1           1
Nuclear ZEff                               R   N=           4
 -1.00000000E+00 -3.60000000E+00 -1.00000000E+00 -1.00000000E+00
Nuclear ZNuc                               R   N=           4
  1.00000000E+00  6.00000000E+00  1.00000000E+00  1.00000000E+00
Nuclear QMom                               R   N=           4
  0.00000000E+00  0.00000000E+00  0.00000000E+00  0.00000000E+00
Nuclear GFac                               R   N=           4
  2.79284600E+00  0.00000000E+00  2.79284600E+00  2.79284600E+00
MicOpt                                     I   N=           4
          -1          -1          -1          -1
Virial Ratio                               R      2.015336253406165E+00
SCF Energy                                 R     -3.935589328831701E+01
CIS Energy                                 R     -3.925836216784926E+01
Total Energy                               R     -3.925836216784926E+01
Post-SCF wavefunction norm                 R      1.000000000000000E+00
RMS Force                                  R      3.340606086323691E-05
RMS Density                                R      5.729521500265351E-10
NImag                                      I                0
Job Status                                 I                1
Nuclear derivative order                   I                2
Grdnt Energy                               R     -3.925836216784926E+01
Grdnt NVar                                 I                7
Grdnt IGetFC                               I                4
Internal Forces                            R   N=           7
  2.97286862E-05  5.01548442E-05  5.19206209E-05 -4.01383381E-05  6.41252351E-05
  5.81074924E-05 -2.03084003E-05
Internal Force Constants                   R   N=          28
  3.63106578E-01 -4.71027434E-03  2.04708561E-01 -4.70768684E-03  3.76837553E-02
  2.04322547E-01  2.30716088E-04  1.93045906E-02 -1.66665517E-02  3.23275637E-02
  5.29916997E-03 -2.79166282E-02  3.44320567E-02 -9.11158171E-03  6.41399580E-02
  2.98947702E-03 -7.98693725E-03  5.52402220E-03 -4.43348960E-02 -1.22215362E-02
  8.95545302E-02 -4.94845640E-03 -9.39836640E-03  5.62167603E-03 -1.26528946E-03
  5.09381850E-04 -1.54087785E-02  1.55475395E-02
Mulliken Charges                           R   N=           4
  2.78608481E-01  2.32022235E-01  2.44750581E-01  2.44618702E-01
Optimization MaxStp                        I                2
Optimization Job offset                    I                0
Optimization Num results per geometry      I                2
Optimization Num geometry variables        I               12
Opt point       1 Results for each geome   R   N=           2
 -3.92583622E+01  0.00000000E+00
Opt point       1 Geometries               R   N=          12
  7.22778314E-01  4.15611802E+00 -3.21792826E-02 -1.27934073E+00  4.15849904E+00
  5.25786668E-01 -2.99598583E+00  5.49400875E+00 -5.88472233E-02 -2.99588189E+00
  2.82096408E+00 -5.68149376E-02
Opt point       1 Gradient at each geome   R   N=          12
 -3.43691605E-05 -3.20700523E-05 -2.80997555E-05 -1.88930942E-05  5.05119020E-05
  7.83269774E-06  1.47113919E-05 -5.98730725E-05  2.04582756E-05  3.85508629E-05
  4.14312228E-05 -1.91217821E-07
Optimization Number of geometries          I   N=           1
           1
Cartesian Gradient                         R   N=          12
 -3.43691605E-05 -3.20700523E-05 -2.80997555E-05 -1.88930942E-05  5.05119020E-05
  7.83269774E-06  1.47113919E-05 -5.98730725E-05  2.04582756E-05  3.85508629E-05
  4.14312228E-05 -1.91217821E-07
Cartesian Force Constants                  R   N=          78
  3.39884947E-01 -3.61764181E-04  1.93783224E-02 -8.74056705E-02  8.68860085E-05
  3.48168470E-02 -3.42850585E-01  3.55000406E-04  1.03096412E-01  6.75939164E-01
  3.63253137E-04 -5.55944879E-03 -9.49841351E-05 -3.37830920E-04  8.58489739E-02
  7.80896289E-02 -1.04048086E-04 -4.07886771E-02  1.18874915E-03  2.95085211E-05
  8.86823153E-02  1.50791922E-03  2.36160154E-02 -7.86646682E-03 -1.66676520E-01
  4.66733904E-02 -3.97129280E-02  1.45219551E-01 -2.68895345E-03 -6.88588851E-03
 -3.57156844E-03  8.43077698E-02 -4.02250454E-02  3.47377446E-02 -7.60115523E-02
  8.40917333E-02  4.66580855E-03 -1.68616973E-03  2.98968710E-03 -5.22208363E-02
  1.80225651E-02 -2.39935585E-02  3.37589811E-02 -2.38132057E-02  1.52223647E-02
  1.45771850E-03 -2.36092516E-02 -7.82427432E-03 -1.66412060E-01 -4.66988127E-02
 -3.95654501E-02  1.99490493E-02 -5.60726413E-03  1.37960467E-02  1.45005292E-01
  2.68746449E-03 -6.93298512E-03  3.57966657E-03 -8.43249393E-02 -4.00644797E-02
 -3.46632050E-02  5.72214640E-03 -3.69807994E-02  7.47681033E-03  7.59153284E-02
  8.39782642E-02  4.65023305E-03  1.70333181E-03  2.98214303E-03 -5.20643245E-02
 -1.79570895E-02 -2.39000797E-02  1.38204137E-02 -7.35297046E-03  5.78150669E-03
  3.35936777E-02  2.36067281E-02  1.51364300E-02
Nonadiabatic coupling                      R   N=          12
  7.69794074E-05  1.35949721E-01 -2.47294349E-04 -4.57705419E-04 -1.68634768E-02
 -5.29196540E-04  1.73570747E-01 -5.58179958E-02 -5.22702665E-01 -1.73191088E-01
 -5.55348660E-02  5.23407463E-01
Dipole Moment                              R   N=           3
 -1.92578014E+00  4.15713923E+00 -3.23421966E-02
Dipole Derivatives                         R   N=          36
  4.12982629E-01 -2.55871056E-04 -6.72553581E-02 -3.98957718E-04  2.05973051E-01
  7.61978256E-05 -3.00034515E-02  1.01217141E-04  2.41747510E-01  1.41414542E-02
  6.18034019E-04  3.34316197E-02  7.46045371E-04 -1.86150220E-01  1.35423519E-04
  5.81400044E-02  3.18349763E-04  1.05466691E-01  2.86444086E-01 -2.36572273E-01
  1.70638907E-02 -5.09491579E-02  4.89620819E-01  1.42584454E-02 -1.38611899E-02
 -5.71773149E-02  3.26424217E-01  2.86431830E-01  2.36210110E-01  1.67598476E-02
  5.06020702E-02  4.90556351E-01 -1.44700667E-02 -1.42753629E-02  5.67577480E-02
  3.26361582E-01
Polarizability                             R   N=           6
  1.14368108E+01 -4.85557730E-05  9.60361956E+00  7.70091227E-01 -6.15045160E-04
  6.12183994E+00
QEq coupling tensors                       R   N=          24
 -2.52145965E-01  4.28916853E-04  1.23805949E-01  1.08670404E-01 -1.08896401E-04
  1.28340016E-01  4.09391257E-01 -1.17509095E-03 -6.20190508E-01 -1.99309351E-02
  3.24403045E-04  2.10799251E-01 -8.96563478E-02  1.12793283E-01  9.31033186E-03
 -6.20077229E-02  3.97173402E-02  8.03460160E-02 -8.94961283E-02 -1.12785041E-01
  9.13821446E-03 -6.17279789E-02 -3.95727171E-02  8.03579138E-02
Number of Normal Modes                     I                6
Vib-LE2Fix                                 I               14
Vib-NDFDPol                                I                0
Vib-NumROA                                 I                0
Vib-NDim                                   I                4
Vib-NDim0                                  I                4
Vib-LFlags                                 I                8
Vib-IFlags                                 I   N=          48
           0           0           1           0           0           0
           0           0           0           0           2           0
           0           0           0           0           0           0
           3           0           0           0           0           0
           0           0           4           0           0           0
           0           0           0           0           5           0
           0           0           0           0           0           0
           6           0           0           0           0           0
Vib-AtMass                                 R   N=           4
  1.00782504E+00  1.20000000E+01  1.00782504E+00  1.00782504E+00
Vib-E2                                     R   N=          84
  6.97440953E+02  8.24230773E+02  1.29014437E+03  2.17813367E+03  2.62043643E+03
  3.24587181E+03  1.20012247E+00  1.15584355E+00  1.04008585E+00  1.02624092E+00
  1.06893272E+00  1.11598782E+00  3.43946315E-01  4.62643969E-01  1.01999023E+00
  2.86859070E+00  4.32461877E+00  6.92743380E+00  1.48581355E+02  1.66379314E+02
  1.13636511E+01  3.36365331E+02  6.46020627E+01  1.98785248E+02  0.00000000E+00
  0.00000000E+00  0.00000000E+00  0.00000000E+00  0.00000000E+00  0.00000000E+00
  0.00000000E+00  0.00000000E+00  0.00000000E+00  0.00000000E+00  0.00000000E+00
  0.00000000E+00  0.00000000E+00  0.00000000E+00  0.00000000E+00  0.00000000E+00
  0.00000000E+00  0.00000000E+00  0.00000000E+00  0.00000000E+00  0.00000000E+00
  0.00000000E+00  0.00000000E+00  0.00000000E+00  0.00000000E+00  0.00000000E+00
  0.00000000E+00  0.00000000E+00  0.00000000E+00  0.00000000E+00  1.00000000E+02
  1.00000000E+02  1.00000000E+02  1.00000000E+02  1.00000000E+02  1.00000000E+02
  0.00000000E+00  0.00000000E+00  0.00000000E+00  0.00000000E+00  0.00000000E+00
  0.00000000E+00  0.00000000E+00  0.00000000E+00  0.00000000E+00  0.00000000E+00
  0.00000000E+00  0.00000000E+00  0.00000000E+00  0.00000000E+00  0.00000000E+00
  0.00000000E+00  0.00000000E+00  0.00000000E+00  0.00000000E+00  0.00000000E+00
  0.00000000E+00  0.00000000E+00  0.00000000E+00  0.00000000E+00
Vib-Modes                                  R   N=          72
  2.07594047E-01 -4.96626993E-04  7.11309472E-01 -8.36717622E-03  3.96236703E-05
 -1.32000071E-01 -5.42342591E-02  1.69542773E-01  4.31125267E-01 -5.37332545E-02
 -1.69517938E-01  4.29267484E-01  1.27299561E-03  7.51357854E-01  7.81970976E-04
  5.09531089E-05 -1.16042169E-01 -1.40556285E-04  1.57036589E-01  3.13766924E-01
 -2.94013165E-01 -1.58916275E-01  3.16569445E-01  2.94904774E-01 -1.16917882E-01
  1.56088837E-03 -1.72646194E-01 -5.24856598E-02 -2.13312894E-04  1.34201103E-02
  3.71622479E-01  5.82865941E-01  5.29636668E-03  3.70233159E-01 -5.81886950E-01
  7.55887369E-03 -5.30096111E-04 -1.99900330E-01  1.50395282E-04 -1.93621223E-04
 -4.09307244E-02 -3.56368915E-05 -5.89653761E-01  3.42977723E-01 -1.08187057E-01
  5.92489272E-01  3.44277728E-01  1.08460984E-01 -2.64327728E-01  5.70107490E-04
  5.54080760E-02 -6.67984732E-02  5.68093510E-05 -3.31233928E-02  5.31251478E-01
 -3.89578873E-01  1.70119890E-01  5.28434223E-01  3.88332346E-01  1.68866595E-01
  9.40658720E-01 -1.04768455E-03 -2.56203487E-01 -9.81418375E-02  9.44769696E-05
  1.44274388E-02  1.14141539E-01 -7.12688303E-02  4.23027000E-02  1.13757781E-01
  7.11915938E-02  4.21157463E-02
Gaussian Version                           C   N=           2
ES64L-G16RevA.03        
