optimize on S0 potential, frequencies                                   
Freq      RwB97XD                                                     def2SVP             
Number of atoms                            I                4
Info1-9                                    I   N=           9
          16          14        1002           0           0         100
           6          18        -802
Full Title                                 C   N=           4
optimize on S0 potential, frequencies           
Route                                      C   N=           5
#p wB97XD/def2SVP scf(MaxCycle=1000) NoSymm Opt=Tight Freq  
Charge                                     I                1
Multiplicity                               I                1
Number of electrons                        I                8
Number of alpha electrons                  I                4
Number of beta electrons                   I                4
Number of basis functions                  I               29
Number of independent functions            I               29
Number of point charges in /Mol/           I                0
Number of translation vectors              I                0
Atomic numbers                             I   N=           4
           1           6           1           1
Nuclear charges                            R   N=           4
  1.00000000E+00  6.00000000E+00  1.00000000E+00  1.00000000E+00
Current cartesian coordinates              R   N=          12
  4.45491930E-01  4.15739191E+00  9.45322479E-02 -1.63708697E+00  4.15740227E+00
  9.44766147E-02 -2.67842103E+00  5.96093482E+00  9.45328735E-02 -2.67841408E+00
  2.35386090E+00  9.44034888E-02
Number of symbols in /Mol/                 I                0
Force Field                                I                0
Atom Types                                 C   N=           4
                                                
Int Atom Types                             I   N=           4
           0           0           0           0
MM charges                                 R   N=           4
  0.00000000E+00  0.00000000E+00  0.00000000E+00  0.00000000E+00
Integer atomic weights                     I   N=           4
           1          12           1           1
Real atomic weights                        R   N=           4
  1.00782504E+00  1.20000000E+01  1.00782504E+00  1.00782504E+00
Atom fragment info                         I   N=           4
           0           0           0           0
Atom residue num                           I   N=           4
           0           0           0           0
Nuclear spins                              I   N=           4
           1           0           1           1
Nuclear ZEff                               R   N=           4
 -1.00000000E+00 -3.60000000E+00 -1.00000000E+00 -1.00000000E+00
Nuclear ZNuc                               R   N=           4
  1.00000000E+00  6.00000000E+00  1.00000000E+00  1.00000000E+00
Nuclear QMom                               R   N=           4
  0.00000000E+00  0.00000000E+00  0.00000000E+00  0.00000000E+00
Nuclear GFac                               R   N=           4
  2.79284600E+00  0.00000000E+00  2.79284600E+00  2.79284600E+00
MicOpt                                     I   N=           4
          -1          -1          -1          -1
Virial Ratio                               R      2.012294289610574E+00
SCF Energy                                 R     -3.943503734612899E+01
Total Energy                               R     -3.943503734612899E+01
RMS Force                                  R      2.842368240094191E-06
RMS Density                                R      2.478922529787286E-10
NImag                                      I                0
Job Status                                 I                1
Nuclear derivative order                   I                2
Grdnt Energy                               R     -3.943503734612899E+01
Grdnt NVar                                 I                7
Grdnt IGetFC                               I                4
Internal Forces                            R   N=           7
 -1.92319412E-06 -4.86756479E-06 -6.28472444E-06 -8.96322983E-07  5.11253034E-07
  3.85095795E-07  1.38834459E-06
Internal Force Constants                   R   N=          28
  3.59316423E-01 -2.93930226E-03  3.59149812E-01 -2.93912216E-03 -2.94451639E-03
  3.59145194E-01  1.90888254E-03  1.93101020E-03 -3.82313300E-03  6.38345078E-02
  1.90913873E-03 -3.82298488E-03  1.93121215E-03 -3.19275671E-02  6.38350312E-02
 -3.81802127E-03  1.89197469E-03  1.89192086E-03 -3.19069407E-02 -3.19074641E-02
  6.38144048E-02  1.37131746E-07  1.81907182E-07  8.24099302E-08 -6.79204938E-07
  9.48722139E-07  9.31799180E-07  6.45316175E-02
Mulliken Charges                           R   N=           4
  2.37865507E-01  2.86418006E-01  2.37858227E-01  2.37858260E-01
Optimization MaxStp                        I                2
Optimization Job offset                    I                0
Optimization Num results per geometry      I                2
Optimization Num geometry variables        I               12
Opt point       1 Results for each geome   R   N=           2
 -3.94350373E+01  0.00000000E+00
Opt point       1 Geometries               R   N=          12
  4.45491930E-01  4.15739191E+00  9.45322479E-02 -1.63708697E+00  4.15740227E+00
  9.44766147E-02 -2.67842103E+00  5.96093482E+00  9.45328735E-02 -2.67841408E+00
  2.35386090E+00  9.44034888E-02
Opt point       1 Gradient at each geome   R   N=          12
  1.92317021E-06 -6.76080549E-07  7.69437388E-07  4.13362538E-06  2.24121132E-06
 -2.30920968E-06 -2.96661554E-06  3.90776059E-06  7.65128225E-07 -3.09018006E-06
 -5.47289136E-06  7.74644072E-07
Optimization Number of geometries          I   N=           1
           1
Cartesian Gradient                         R   N=          12
  1.92317021E-06 -6.76080549E-07  7.69437388E-07  4.13362538E-06  2.24121132E-06
 -2.30920968E-06 -2.96661554E-06  3.90776059E-06  7.65128225E-07 -3.09018006E-06
 -5.47289136E-06  7.74644072E-07
Cartesian Force Constants                  R   N=          78
  3.59316423E-01 -1.12159121E-06  4.41541878E-02  8.61581304E-06  8.77307199E-07
  2.00138511E-02 -3.57492724E-01  1.51668664E-06 -7.97868310E-06  6.28382302E-01
  1.13533618E-06 -6.14899388E-02 -7.24467215E-08 -4.42352665E-06  6.28129653E-01
 -7.33503579E-06 -5.84551234E-08 -5.96120727E-02  9.22299826E-06  1.59525818E-05
  1.78546614E-01 -9.11640326E-04  2.05014641E-02  4.12357010E-07 -1.35445741E-01
  1.28142779E-01  3.62971294E-06  1.22927984E-01 -3.92045005E-03  8.66793935E-03
 -6.56297014E-07  1.28131788E-01 -2.83321055E-01 -6.38897366E-06 -1.36427813E-01
  2.80357150E-01 -7.68196960E-07  2.02503349E-08  1.97990308E-02  3.95922771E-06
 -6.93829406E-06 -5.94669691E-02 -3.58695227E-06  7.89328491E-06  1.98211778E-02
 -9.12058917E-04 -2.05018592E-02 -1.04948695E-06 -1.35443837E-01 -1.28139490E-01
 -5.51767541E-06  1.34293977E-02  1.22164750E-02  3.95921521E-07  1.22926498E-01
  3.92043630E-03  8.66781166E-03 -1.48563447E-07 -1.28128881E-01 -2.83318659E-01
 -9.50515302E-06 -1.22164297E-02 -5.70403375E-03 -9.75241191E-07  1.36424875E-01
  2.80354881E-01 -5.12580499E-07 -8.39102571E-07  1.97991907E-02 -5.20354252E-06
 -8.94183992E-06 -5.94675720E-02 -4.55117569E-07 -8.48014663E-07  1.98467605E-02
  6.17124058E-06  1.06289571E-05  1.98216208E-02
Nonadiabatic coupling                      R   N=          12
  0.00000000E+00  0.00000000E+00  0.00000000E+00  0.00000000E+00  0.00000000E+00
  0.00000000E+00  0.00000000E+00  0.00000000E+00  0.00000000E+00  0.00000000E+00
  0.00000000E+00  0.00000000E+00
Dipole Moment                              R   N=           3
 -1.63709737E+00  4.15739832E+00  9.44808581E-02
Dipole Derivatives                         R   N=          36
  2.99191772E-01 -1.11220207E-06  6.91632238E-06 -4.77723027E-07  1.84589243E-01
  2.49041477E-06  5.43658193E-06  2.62580638E-06  1.10220104E-01  2.74280826E-01
  2.32599548E-06 -8.22668295E-06  2.31711430E-06  2.74545934E-01 -1.41860806E-05
 -8.10580258E-06 -1.42696775E-05  6.71485687E-01  2.13264315E-01 -4.96532744E-02
 -1.05902674E-06 -4.96970006E-02  2.70433014E-01  7.38900187E-06 -1.93802268E-07
  6.18444097E-06  1.09146569E-01  2.13263088E-01  4.96520606E-02  2.36938732E-06
  4.96951612E-02  2.70431808E-01  4.30666384E-06  2.86301648E-06  5.45941307E-06
  1.09147640E-01
Polarizability                             R   N=           6
  9.05855699E+00 -6.83213807E-06  9.05169030E+00  8.56050984E-05  1.46211025E-04
  4.93573545E+00
Quadrupole Moment                          R   N=           6
 -3.73666826E+00  1.08670256E+01 -7.13035733E+00 -6.80607797E+00 -1.54659549E-01
  3.92820454E-01
QEq coupling tensors                       R   N=          24
 -2.60627914E-01  1.55675788E-06  1.56302446E-01 -8.99306819E-06  1.86490739E-06
  1.04325468E-01  8.07312383E-01  8.15012235E-07  8.07317160E-01  4.96724845E-05
  8.68908295E-05 -1.61462954E+00  5.20630835E-02  1.80545244E-01 -1.56391778E-01
  6.15952345E-06 -6.95674988E-06  1.04328695E-01  5.20637473E-02 -1.80541747E-01
 -1.56390703E-01 -6.79514471E-06 -1.17501923E-05  1.04326956E-01
Number of Normal Modes                     I                6
Vib-LE2Fix                                 I               14
Vib-NDFDPol                                I                0
Vib-NumROA                                 I                0
Vib-NDim                                   I                4
Vib-NDim0                                  I                4
Vib-LFlags                                 I                8
Vib-IFlags                                 I   N=          48
           0           0           1           0           0           0
           0           0           0           0           2           0
           0           0           0           0           0           0
           3           0           0           0           0           0
           0           0           4           0           0           0
           0           0           0           0           5           0
           0           0           0           0           0           0
           6           0           0           0           0           0
Vib-AtMass                                 R   N=           4
  1.00782504E+00  1.20000000E+01  1.00782504E+00  1.00782504E+00
Vib-E2                                     R   N=          84
  1.38910904E+03  1.38940086E+03  1.39772416E+03  3.04366517E+03  3.26854355E+03
  3.26906912E+03  1.09573406E+00  1.09576361E+00  1.23560662E+00  1.00782532E+00
  1.12492365E+00  1.12495451E+00  1.24574180E+00  1.24629888E+00  1.42224158E+00
  5.50084256E+00  7.08079144E+00  7.08326304E+00  2.14403710E+01  2.14403568E+01
  6.53803274E+00  3.41901388E-04  9.90076676E+01  9.91373188E+01  0.00000000E+00
  0.00000000E+00  0.00000000E+00  0.00000000E+00  0.00000000E+00  0.00000000E+00
  0.00000000E+00  0.00000000E+00  0.00000000E+00  0.00000000E+00  0.00000000E+00
  0.00000000E+00  0.00000000E+00  0.00000000E+00  0.00000000E+00  0.00000000E+00
  0.00000000E+00  0.00000000E+00  0.00000000E+00  0.00000000E+00  0.00000000E+00
  0.00000000E+00  0.00000000E+00  0.00000000E+00  0.00000000E+00  0.00000000E+00
  0.00000000E+00  0.00000000E+00  0.00000000E+00  0.00000000E+00  1.00000000E+02
  1.00000000E+02  1.00000000E+02  1.00000000E+02  1.00000000E+02  1.00000000E+02
  0.00000000E+00  0.00000000E+00  0.00000000E+00  0.00000000E+00  0.00000000E+00
  0.00000000E+00  0.00000000E+00  0.00000000E+00  0.00000000E+00  0.00000000E+00
  0.00000000E+00  0.00000000E+00  0.00000000E+00  0.00000000E+00  0.00000000E+00
  0.00000000E+00  0.00000000E+00  0.00000000E+00  0.00000000E+00  0.00000000E+00
  0.00000000E+00  0.00000000E+00  0.00000000E+00  0.00000000E+00
Vib-Modes                                  R   N=          72
 -9.74191898E-02  1.16021441E-02  9.64994052E-07 -8.94190451E-02 -1.28554634E-03
 -1.41194568E-06  5.86687715E-01  3.93674933E-01  2.21482689E-05  5.75428720E-01
 -3.89970297E-01 -6.30146769E-06  1.40302533E-03  8.07287000E-01  3.88146862E-05
  1.28497289E-03 -8.94340867E-02 -5.67391419E-06  3.83379655E-01  1.23163738E-01
  2.60187993E-05 -4.00082632E-01  1.34425605E-01  2.72483832E-06 -1.52505574E-05
 -3.62104412E-05  5.71352028E-01  2.59807026E-06  6.87809414E-06 -1.43951929E-01
 -1.55595148E-05 -2.40353649E-05  5.71332493E-01 -1.24705173E-07 -2.16504821E-05
  5.71326423E-01  5.76172498E-01 -1.94641997E-06  1.43575940E-05  1.59320240E-04
  3.49951301E-06 -6.38832527E-07 -2.89024421E-01  5.00451444E-01  1.45762945E-05
 -2.89045076E-01 -5.00491165E-01 -2.13274191E-05  1.11590275E-02  7.19888212E-03
  4.22105159E-07 -1.41396426E-03 -1.03203234E-01 -3.69695315E-06 -3.45677433E-01
  6.06066369E-01  1.88830537E-05  3.51354235E-01  6.15557970E-01  2.47138287E-05
  8.12965783E-01 -1.02229286E-04  2.17529055E-05 -1.03216830E-01  1.41417160E-03
 -2.06605516E-06  2.12785706E-01 -3.56009519E-01 -1.10085506E-05  2.03233615E-01
  3.39273450E-01  1.38558098E-05
Gaussian Version                           C   N=           2
ES64L-G16RevA.03        
